/*--------------------------------*- C++ -*----------------------------------*\
| =========                 |                                                 |
| \\      /  F ield         | OpenFOAM: The Open Source CFD Toolbox           |
|  \\    /   O peration     | Version:  v1912                                 |
|   \\  /    A nd           | Website:  www.openfoam.com                      |
|    \\/     M anipulation  |                                                 |
\*---------------------------------------------------------------------------*/
FoamFile
{
    version     2.0;
    format      ascii;
    class       surfaceScalarField;
    location    "0.46";
    object      phi;
}
// * * * * * * * * * * * * * * * * * * * * * * * * * * * * * * * * * * * * * //

dimensions      [0 3 -1 0 0 0 0];
oriented        oriented;


internalField   nonuniform List<scalar> 
13060
(
0.00570582
0.988469
-0.994175
0.00780698
0.94532
-0.947421
0.00965289
0.899197
-0.901043
0.0114773
0.855041
-0.856866
0.0132893
0.813161
-0.814973
0.0150975
0.773297
-0.775105
0.0169773
0.735186
-0.737065
0.0187995
0.698773
-0.700595
0.0204782
0.664197
-0.665876
0.0219681
0.631243
-0.632733
0.0231129
0.599908
-0.601053
0.0238914
0.570217
-0.570996
0.0244546
0.541968
-0.542531
0.0248396
0.515271
-0.515656
0.02511
0.490022
-0.490292
0.0252602
0.465965
-0.466115
0.0253588
0.443219
-0.443318
0.0254989
0.421583
-0.421723
0.0256044
0.40113
-0.401235
0.0254601
0.382046
-0.381902
0.0251054
0.363757
-0.363402
0.0245104
0.34637
-0.345775
0.023611
0.329947
-0.329048
0.0226896
0.314221
-0.313299
0.0220974
0.299079
-0.298487
0.0216426
0.285033
-0.284578
0.0210431
0.271895
-0.271296
0.0203697
0.259264
-0.258591
0.0197295
0.247266
-0.246626
0.019045
0.236097
-0.235412
0.0182177
0.225651
-0.224824
0.0173418
0.215731
-0.214855
0.0164827
0.206355
-0.205496
0.015551
0.197558
-0.196626
0.0144867
0.189239
-0.188174
0.0133212
0.181395
-0.18023
0.0121338
0.173991
-0.172804
0.0109587
0.167057
-0.165882
0.00974696
0.16056
-0.159348
0.00848022
0.154394
-0.153128
0.00719422
0.148576
-0.14729
0.00592796
0.14311
-0.141844
0.00467566
0.137871
-0.136619
0.00343411
0.132901
-0.131659
0.00216809
0.128067
-0.126801
0.0010617
0.123542
-0.122436
5.53016e-05
0.118841
-0.117835
-0.00116245
0.115348
-0.114131
-0.00144831
0.107014
-0.106728
0.0776251
-0.0790734
0.00616682
0.982302
0.00812404
0.943363
0.00973221
0.897589
0.0110814
0.853692
0.0124079
0.811835
0.0138811
0.771824
0.0153427
0.733724
0.0167246
0.697391
0.0179763
0.662945
0.0191032
0.630116
0.0200763
0.598935
0.0207512
0.569543
0.0212067
0.541513
0.0214565
0.515021
0.0215295
0.489949
0.0214062
0.466088
0.0211527
0.443472
0.0205942
0.422142
0.0199992
0.401725
0.01964
0.382405
0.0193308
0.364066
0.0192217
0.346479
0.0191645
0.330004
0.0188981
0.314487
0.0183204
0.299656
0.0177121
0.285641
0.0171102
0.272497
0.0163907
0.259984
0.0155379
0.248119
0.0147086
0.236926
0.0139233
0.226437
0.0130558
0.216598
0.0120575
0.207354
0.0110143
0.198601
0.00997602
0.190277
0.00893619
0.182435
0.00788219
0.175045
0.00679493
0.168144
0.00571448
0.16164
0.00465595
0.155453
0.00359987
0.149632
0.00260393
0.144106
0.00165956
0.138816
0.000790515
0.13377
1.80674e-06
0.128856
-0.000858781
0.124403
-0.0017507
0.119733
-0.00224647
0.115844
-0.00206692
0.106834
0.0755582
0.00604927
0.976253
0.00751396
0.941898
0.00864957
0.896453
0.00978242
0.852559
0.0109751
0.810642
0.0123136
0.770486
0.0136366
0.732401
0.0147703
0.696257
0.0155855
0.66213
0.0161096
0.629592
0.0164182
0.598626
0.0165911
0.56937
0.0166368
0.541467
0.0166153
0.515043
0.016563
0.490001
0.0164785
0.466173
0.0164813
0.44347
0.0165547
0.422068
0.0164269
0.401853
0.0160211
0.382811
0.0153652
0.364722
0.0144529
0.347391
0.0135294
0.330928
0.0128742
0.315142
0.0124233
0.300107
0.0119511
0.286113
0.0113898
0.273058
0.0107877
0.260586
0.0101991
0.248707
0.0094787
0.237646
0.00863504
0.22728
0.00782625
0.217407
0.00707666
0.208103
0.00628166
0.199396
0.0054245
0.191134
0.00452382
0.183336
0.00361445
0.175955
0.00274497
0.169014
0.00187769
0.162508
0.00101573
0.156315
0.000219885
0.150428
-0.000577505
0.144903
-0.00134443
0.139583
-0.00205478
0.13448
-0.00271518
0.129516
-0.00317865
0.124866
-0.00356896
0.120124
-0.00337432
0.115649
-0.0025081
0.105968
0.0730501
0.00547923
0.970773
0.00690421
0.940473
0.00797697
0.895381
0.0087773
0.851759
0.00970399
0.809715
0.0105773
0.769612
0.0113098
0.731669
0.0118839
0.695683
0.0123928
0.661621
0.0127528
0.629232
0.0128946
0.598484
0.0129318
0.569332
0.0128272
0.541572
0.0126353
0.515234
0.0123664
0.49027
0.0119111
0.466628
0.0112158
0.444165
0.0105609
0.422723
0.0100988
0.402315
0.00984481
0.383065
0.009765
0.364802
0.00975065
0.347406
0.00964367
0.331035
0.00916676
0.315619
0.00856554
0.300709
0.0080077
0.286671
0.0074065
0.27366
0.00663755
0.261355
0.00583388
0.249511
0.00515626
0.238324
0.00450985
0.227927
0.00372718
0.21819
0.00285941
0.208971
0.00201084
0.200244
0.00118301
0.191962
0.000381851
0.184137
-0.000417455
0.176754
-0.00122475
0.169821
-0.00197122
0.163254
-0.00264073
0.156984
-0.00327754
0.151065
-0.00380806
0.145434
-0.00421924
0.139994
-0.00451195
0.134773
-0.00469177
0.129696
-0.00477413
0.124948
-0.00478508
0.120135
-0.00429202
0.115156
-0.00301253
0.104689
0.0700376
0.00535198
0.965422
0.00609268
0.939732
0.00666693
0.894806
0.00736822
0.851057
0.00816036
0.808923
0.00883524
0.768937
0.00927871
0.731225
0.00939541
0.695566
0.00931242
0.661704
0.00917068
0.629374
0.0089521
0.598703
0.00867813
0.569606
0.0083082
0.541942
0.00790158
0.515641
0.00760903
0.490563
0.00747623
0.466761
0.00743346
0.444208
0.0072969
0.42286
0.00690044
0.402711
0.00629757
0.383668
0.0054686
0.365631
0.00453977
0.348334
0.00382329
0.331751
0.00332974
0.316113
0.00286004
0.301178
0.00239243
0.287139
0.00197825
0.274074
0.00161022
0.261723
0.00105931
0.250062
0.000347343
0.239036
-0.000431797
0.228706
-0.0011385
0.218896
-0.00179286
0.209625
-0.00247373
0.200925
-0.0031286
0.192617
-0.00376223
0.184771
-0.00439188
0.177384
-0.0049757
0.170405
-0.00552931
0.163808
-0.00603674
0.157492
-0.00642763
0.151456
-0.00670966
0.145716
-0.00690612
0.14019
-0.00699213
0.134859
-0.00692669
0.129631
-0.00660276
0.124624
-0.0062058
0.119738
-0.00532374
0.114274
-0.00356697
0.102932
0.0664706
0.00485128
0.96057
0.00528919
0.939295
0.00568536
0.89441
0.00603963
0.850703
0.00634096
0.808622
0.0064215
0.768857
0.00630546
0.731341
0.00620036
0.695671
0.00606495
0.66184
0.00578287
0.629656
0.00546004
0.599026
0.00513911
0.569927
0.00477815
0.542303
0.0043071
0.516112
0.00367651
0.491193
0.00289827
0.467539
0.00207387
0.445032
0.00147983
0.423454
0.00114258
0.403049
0.00106757
0.383743
0.00121589
0.365483
0.00119643
0.348354
0.000816595
0.332131
0.00024617
0.316683
-0.000414985
0.301839
-0.00106524
0.287789
-0.00177402
0.274783
-0.0025162
0.262465
-0.00315566
0.250701
-0.00368529
0.239565
-0.00420249
0.229223
-0.00484719
0.219541
-0.0055469
0.210325
-0.0062098
0.201588
-0.00689909
0.193306
-0.00755103
0.185423
-0.00806755
0.1779
-0.00849952
0.170837
-0.00884093
0.164149
-0.0090854
0.157736
-0.00925679
0.151627
-0.00930725
0.145766
-0.0092096
0.140093
-0.0089544
0.134604
-0.00856924
0.129245
-0.00810242
0.124158
-0.00756684
0.119202
-0.00640722
0.113115
-0.00413064
0.100655
0.06234
0.0044423
0.956128
0.00424923
0.939488
0.00394729
0.894712
0.00405032
0.8506
0.00415617
0.808516
0.00391259
0.7691
0.00344492
0.731809
0.00286512
0.696251
0.00231169
0.662393
0.00178663
0.630181
0.00125775
0.599555
0.000725004
0.57046
0.000214172
0.542813
-0.000212887
0.516539
-0.000450577
0.491431
-0.000538312
0.467627
-0.000697517
0.445191
-0.00108667
0.423843
-0.00166191
0.403624
-0.00247406
0.384555
-0.00336053
0.366369
-0.00404644
0.34904
-0.00445714
0.332542
-0.00480331
0.317029
-0.00528703
0.302323
-0.00574411
0.288246
-0.00609315
0.275132
-0.00653074
0.262903
-0.00712775
0.251298
-0.00781968
0.240257
-0.00847918
0.229883
-0.00902578
0.220088
-0.0095128
0.210812
-0.00999565
0.202071
-0.0104033
0.193714
-0.0107401
0.185759
-0.0110934
0.178253
-0.0114004
0.171144
-0.0116181
0.164367
-0.0117323
0.15785
-0.01171
0.151605
-0.0115708
0.145627
-0.0113115
0.139833
-0.0109215
0.134214
-0.0103954
0.128719
-0.00965998
0.123422
-0.00877549
0.118318
-0.00730114
0.11164
-0.00458653
0.0979407
0.0577535
0.00399393
0.952134
0.00328823
0.940193
0.00267753
0.895323
0.00209278
0.851185
0.0013666
0.809242
0.000672793
0.769794
2.04553e-05
0.732461
-0.000643614
0.696915
-0.00130507
0.663055
-0.00191735
0.630793
-0.00246238
0.6001
-0.0029187
0.570916
-0.00340099
0.543296
-0.00402019
0.517158
-0.00479498
0.492206
-0.00559962
0.468431
-0.00615386
0.445745
-0.00647944
0.424168
-0.00656897
0.403713
-0.00642865
0.384415
-0.00638018
0.366321
-0.00660586
0.349265
-0.00701987
0.332956
-0.00747157
0.317481
-0.00800391
0.302856
-0.00868786
0.28893
-0.00938153
0.275825
-0.00996593
0.263487
-0.0104682
0.251801
-0.0108905
0.24068
-0.0113019
0.230294
-0.0118106
0.220596
-0.0123403
0.211342
-0.0127926
0.202523
-0.0132463
0.194168
-0.0136756
0.186189
-0.0139484
0.178526
-0.0140704
0.171266
-0.0140919
0.164388
-0.0140163
0.157775
-0.013842
0.151431
-0.0135378
0.145323
-0.0131106
0.139406
-0.0125675
0.133671
-0.0119332
0.128085
-0.0111739
0.122663
-0.0101352
0.117279
-0.00835033
0.109855
-0.00506577
0.0946561
0.0526877
0.00347463
0.948659
0.00216873
0.941499
0.000890214
0.896601
-4.3063e-06
0.852079
-0.00119857
0.810436
-0.00232375
0.770919
-0.00336566
0.733503
-0.00426768
0.697817
-0.00511345
0.6639
-0.0058863
0.631566
-0.00664373
0.600857
-0.00729183
0.571564
-0.00771693
0.543721
-0.00788523
0.517327
-0.00790237
0.492223
-0.00792509
0.468454
-0.00816162
0.445982
-0.00859479
0.424602
-0.00929461
0.404413
-0.0100479
0.385168
-0.0105937
0.366866
-0.010963
0.349635
-0.0112775
0.333271
-0.0115793
0.317783
-0.0118329
0.303109
-0.012068
0.289165
-0.0123593
0.276117
-0.0127867
0.263915
-0.0133331
0.252347
-0.0139392
0.241286
-0.0145133
0.230868
-0.0149408
0.221024
-0.0152617
0.211663
-0.0155523
0.202814
-0.0157593
0.194375
-0.0158636
0.186293
-0.0159763
0.178639
-0.0160784
0.171368
-0.0160598
0.16437
-0.0158982
0.157613
-0.015616
0.151148
-0.0152238
0.144931
-0.0146993
0.138882
-0.014033
0.133004
-0.0132405
0.127293
-0.0124122
0.121835
-0.0111214
0.115988
-0.00911392
0.107848
-0.00543164
0.0909738
0.047256
0.0024622
0.946197
0.000668007
0.943293
-0.00105414
0.898323
-0.00259496
0.85362
-0.00410063
0.811942
-0.00531726
0.772136
-0.00638217
0.734568
-0.00737083
0.698806
-0.00824414
0.664774
-0.00896157
0.632283
-0.00954089
0.601436
-0.0101036
0.572127
-0.010744
0.544361
-0.0114277
0.51801
-0.0121196
0.492915
-0.0126023
0.468937
-0.0128162
0.446196
-0.0128199
0.424605
-0.0126328
0.404226
-0.0124881
0.385024
-0.0125109
0.366889
-0.0126737
0.349798
-0.0129574
0.333554
-0.0133697
0.318195
-0.0139025
0.303642
-0.0144686
0.289731
-0.0149268
0.276575
-0.0153023
0.26429
-0.0156333
0.252678
-0.0159084
0.241561
-0.0161543
0.231114
-0.0165211
0.221391
-0.0169623
0.212104
-0.0173117
0.203163
-0.0175787
0.194642
-0.0178146
0.186529
-0.0179168
0.178741
-0.0178408
0.171292
-0.0176886
0.164217
-0.0174744
0.157399
-0.0171398
0.150814
-0.0166794
0.14447
-0.016125
0.138327
-0.0154846
0.132364
-0.0147547
0.126563
-0.0139271
0.121007
-0.0124194
0.11448
-0.0100945
0.105523
-0.00583727
0.0867166
0.0414188
0.0016959
0.944501
-0.000559281
0.945549
-0.00270136
0.900466
-0.00465437
0.855573
-0.00636691
0.813655
-0.00793148
0.773701
-0.00925158
0.735888
-0.0103154
0.69987
-0.0112644
0.665723
-0.0121558
0.633175
-0.0129397
0.60222
-0.0134495
0.572637
-0.0136563
0.544568
-0.0136401
0.517994
-0.0136087
0.492883
-0.0137519
0.46908
-0.0139718
0.446416
-0.0144072
0.425041
-0.0149199
0.404739
-0.0153103
0.385414
-0.0156045
0.367183
-0.0158015
0.349995
-0.0159329
0.333686
-0.0159823
0.318245
-0.0160546
0.303714
-0.0162439
0.289921
-0.0165377
0.276869
-0.0168885
0.264641
-0.017289
0.253079
-0.0177894
0.242061
-0.0183227
0.231647
-0.018688
0.221756
-0.0188515
0.212267
-0.0189847
0.203296
-0.0191294
0.194786
-0.0191822
0.186582
-0.0191705
0.178729
-0.0191531
0.171274
-0.0190246
0.164089
-0.0187506
0.157125
-0.0183937
0.150457
-0.0179405
0.144017
-0.0173607
0.137747
-0.0166402
0.131644
-0.0157904
0.125713
-0.0148718
0.120088
-0.0134162
0.113025
-0.0109296
0.103036
-0.00614885
0.0819359
0.0352699
0.000917208
0.943584
-0.00201063
0.948476
-0.00436842
0.902823
-0.00667475
0.85788
-0.0085134
0.815493
-0.0100885
0.775276
-0.0114594
0.737259
-0.0125829
0.700993
-0.0134615
0.666601
-0.0141203
0.633834
-0.0147212
0.602821
-0.0153736
0.573289
-0.016022
0.545216
-0.016611
0.518583
-0.0169219
0.493194
-0.0170253
0.469184
-0.0169783
0.446369
-0.0167088
0.424771
-0.0164363
0.404466
-0.0162361
0.385214
-0.0161739
0.367121
-0.0162653
0.350086
-0.0165286
0.333949
-0.0168658
0.318582
-0.0171943
0.304043
-0.0175449
0.290271
-0.0178697
0.277194
-0.0181635
0.264935
-0.0184445
0.25336
-0.0186191
0.242236
-0.0186915
0.23172
-0.0188907
0.221955
-0.0193144
0.212691
-0.0197001
0.203682
-0.0199041
0.19499
-0.0200415
0.186719
-0.0201369
0.178825
-0.0200933
0.171231
-0.0199574
0.163953
-0.0197705
0.156938
-0.0194626
0.150149
-0.0190444
0.143599
-0.0185397
0.137243
-0.0179784
0.131082
-0.0174223
0.125157
-0.0164374
0.119104
-0.0148102
0.111398
-0.0119059
0.100132
-0.00659464
0.0766246
0.0286753
0.000869266
0.942715
-0.00240092
0.951747
-0.00516555
0.905588
-0.00782178
0.860536
-0.00997281
0.817644
-0.0118335
0.777136
-0.0133827
0.738808
-0.0146363
0.702247
-0.015699
0.667664
-0.0165923
0.634727
-0.0171703
0.603399
-0.0174019
0.573521
-0.0173708
0.545185
-0.017269
0.518481
-0.0172453
0.493171
-0.0172123
0.46915
-0.0173996
0.446556
-0.0176598
0.425031
-0.0178842
0.40469
-0.0180185
0.385348
-0.0179761
0.367079
-0.0178397
0.34995
-0.0176894
0.333799
-0.0176307
0.318523
-0.0176577
0.30407
-0.0177975
0.290411
-0.0180277
0.277424
-0.0182662
0.265173
-0.0185677
0.253661
-0.0190717
0.24274
-0.0197389
0.232387
-0.0202656
0.222482
-0.0204406
0.212866
-0.0205059
0.203747
-0.0206876
0.195172
-0.0208704
0.186902
-0.0209271
0.178882
-0.0209336
0.171237
-0.0208824
0.163902
-0.0207144
0.15677
-0.0204675
0.149902
-0.0201235
0.143255
-0.0196748
0.136794
-0.0191133
0.130521
-0.018555
0.124598
-0.0175033
0.118052
-0.0159455
0.10984
-0.0126944
0.096881
-0.00670671
0.0706369
0.0219686
0.000372135
0.942343
-0.00327624
0.955395
-0.00622478
0.908537
-0.00895582
0.863267
-0.0111207
0.819809
-0.0130551
0.779071
-0.0146378
0.740391
-0.0158851
0.703494
-0.0167964
0.668575
-0.0175146
0.635445
-0.0182015
0.604086
-0.0188744
0.574194
-0.0193708
0.545682
-0.0195074
0.518618
-0.0194945
0.493158
-0.0192742
0.46893
-0.0188113
0.446093
-0.0183229
0.424543
-0.0178295
0.404197
-0.0175325
0.385051
-0.017416
0.366962
-0.0174117
0.349945
-0.0174602
0.333847
-0.017544
0.318607
-0.0176622
0.304188
-0.0178556
0.290604
-0.0181469
0.277715
-0.0185107
0.265537
-0.0188902
0.254041
-0.0190961
0.242946
-0.0190769
0.232368
-0.0191392
0.222544
-0.019591
0.213318
-0.0201809
0.204337
-0.0205759
0.195567
-0.0208244
0.18715
-0.021083
0.17914
-0.0212906
0.171445
-0.0213687
0.16398
-0.0213633
0.156765
-0.0212693
0.149808
-0.0210962
0.143082
-0.0208474
0.136545
-0.0205632
0.130237
-0.020156
0.124191
-0.0190634
0.116959
-0.0170867
0.107863
-0.0130382
0.0928325
-0.00616091
0.0637596
0.0158077
0.000227638
0.942115
-0.00344605
0.959069
-0.00659156
0.911682
-0.00957833
0.866254
-0.0120228
0.822254
-0.0140776
0.781125
-0.0157317
0.742045
-0.0171655
0.704928
-0.0184001
0.66981
-0.0192095
0.636255
-0.0195416
0.604418
-0.019612
0.574264
-0.0196053
0.545675
-0.0195262
0.518539
-0.0192982
0.49293
-0.0191877
0.46882
-0.0190566
0.445962
-0.0189416
0.424428
-0.0187389
0.403994
-0.0183333
0.384646
-0.0178746
0.366504
-0.0174358
0.349506
-0.0171054
0.333517
-0.0169643
0.318466
-0.0169275
0.304151
-0.0169568
0.290634
-0.0170488
0.277807
-0.0171696
0.265658
-0.0174255
0.254296
-0.0180242
0.243544
-0.0189729
0.233316
-0.0198904
0.223462
-0.0203773
0.213805
-0.0205898
0.20455
-0.0208877
0.195865
-0.0213094
0.187572
-0.0216491
0.17948
-0.02188
0.171676
-0.0220924
0.164192
-0.0222512
0.156924
-0.0223004
0.149857
-0.0222418
0.143023
-0.0221038
0.136407
-0.0219504
0.130083
-0.0215064
0.123747
-0.0204051
0.115858
-0.0180571
0.105515
-0.0130893
0.0878647
-0.00514754
0.0558179
0.0106601
0.000117003
0.941998
-0.00375774
0.962943
-0.00700108
0.914925
-0.010008
0.869261
-0.0124765
0.824722
-0.0146889
0.783338
-0.0163749
0.743731
-0.0176995
0.706252
-0.0187292
0.67084
-0.0197108
0.637236
-0.0205662
0.605274
-0.0211132
0.574811
-0.0212162
0.545778
-0.0211532
0.518476
-0.0208383
0.492615
-0.0202336
0.468215
-0.0194583
0.445187
-0.0185942
0.423564
-0.01792
0.40332
-0.017416
0.384141
-0.017015
0.366103
-0.0166762
0.349168
-0.0163586
0.333199
-0.0160841
0.318191
-0.0159639
0.304031
-0.0160667
0.290736
-0.0163926
0.278133
-0.0168919
0.266157
-0.0174027
0.254807
-0.0177047
0.243846
-0.0177267
0.233338
-0.0178105
0.223545
-0.0183539
0.214348
-0.0192434
0.205439
-0.0200998
0.196721
-0.0207434
0.188215
-0.021323
0.18006
-0.0219247
0.172278
-0.0224298
0.164697
-0.0227981
0.157292
-0.023108
0.150167
-0.0233244
0.14324
-0.0234296
0.136512
-0.0235803
0.130234
-0.0229708
0.123138
-0.0216537
0.114541
-0.0187231
0.102585
-0.0126716
0.0818132
-0.003795
0.0469412
0.00686511
0.000559458
0.941439
-0.00317243
0.966675
-0.00663336
0.918386
-0.00988153
0.872509
-0.0126668
0.827507
-0.0151178
0.785789
-0.0170859
0.745699
-0.0188519
0.708018
-0.0201014
0.672089
-0.0207515
0.637886
-0.021047
0.605569
-0.0212617
0.575026
-0.021355
0.545871
-0.0211501
0.518271
-0.0208776
0.492342
-0.0204864
0.467824
-0.0200078
0.444708
-0.0193409
0.422897
-0.0184607
0.40244
-0.0175157
0.383197
-0.0166239
0.365211
-0.0158639
0.348408
-0.0153165
0.332652
-0.0149574
0.317832
-0.0146903
0.303764
-0.0144783
0.290524
-0.0143666
0.278021
-0.0143894
0.26618
-0.0146993
0.255117
-0.0155093
0.244657
-0.0168069
0.234636
-0.0181555
0.224894
-0.0191507
0.215343
-0.0197937
0.206082
-0.0203536
0.197281
-0.0210974
0.188959
-0.0219157
0.180878
-0.0226124
0.172974
-0.0232239
0.165309
-0.0238427
0.157911
-0.0243589
0.150683
-0.0247704
0.143651
-0.0251352
0.136877
-0.0253092
0.130408
-0.0247377
0.122566
-0.0233034
0.113107
-0.0196811
0.0989622
-0.0127534
0.0748855
-0.00266747
0.0368553
0.00419765
0.0006494
0.940789
-0.0029406
0.970265
-0.00648266
0.921928
-0.00978247
0.875808
-0.012553
0.830278
-0.0151676
0.788404
-0.0172065
0.747738
-0.0189276
0.70974
-0.0205514
0.673713
-0.0219448
0.63928
-0.022922
0.606546
-0.0232605
0.575365
-0.0232988
0.54591
-0.0229648
0.517937
-0.0223167
0.491694
-0.0213992
0.466906
-0.0202925
0.443601
-0.0192025
0.421807
-0.0181888
0.401426
-0.0171929
0.382201
-0.0161658
0.364184
-0.0152032
0.347445
-0.014325
0.331773
-0.0136583
0.317166
-0.0133016
0.303407
-0.0132647
0.290488
-0.0135538
0.27831
-0.0140769
0.266703
-0.0146308
0.255671
-0.0149992
0.245025
-0.0151725
0.234809
-0.0155331
0.225255
-0.0163735
0.216184
-0.0176105
0.207319
-0.0190313
0.198702
-0.0202944
0.190222
-0.0213508
0.181934
-0.0224166
0.17404
-0.023523
0.166415
-0.0245032
0.158891
-0.0253818
0.151562
-0.0261865
0.144456
-0.0270372
0.137728
-0.0271767
0.130547
-0.0265803
0.12197
-0.0246674
0.111194
-0.0201639
0.0944587
-0.0118276
0.0665493
-0.00130405
0.0263318
0.0028936
0.00109409
0.939695
-0.00235661
0.973716
-0.00579963
0.925371
-0.00912835
0.879137
-0.0122046
0.833354
-0.01512
0.791319
-0.0177348
0.750353
-0.0199381
0.711943
-0.0213934
0.675168
-0.0223978
0.640284
-0.0233015
0.60745
-0.0239064
0.575969
-0.0241277
0.546131
-0.0240078
0.517817
-0.0235336
0.49122
-0.0227872
0.46616
-0.0216895
0.442504
-0.0202878
0.420405
-0.0187757
0.399914
-0.0173887
0.380814
-0.01607
0.362865
-0.014836
0.346211
-0.013741
0.330678
-0.0127997
0.316224
-0.0120249
0.302632
-0.0114168
0.289879
-0.0110162
0.27791
-0.0109317
0.266619
-0.0113159
0.256055
-0.012384
0.246093
-0.014019
0.236444
-0.0157297
0.226965
-0.0172008
0.217655
-0.0184633
0.208582
-0.0195508
0.19979
-0.0207248
0.191396
-0.0221458
0.183355
-0.0235611
0.175455
-0.0247869
0.167641
-0.0259573
0.160061
-0.0271021
0.152707
-0.0281799
0.145534
-0.0291642
0.138712
-0.0294813
0.130865
-0.02918
0.121668
-0.0269756
0.108989
-0.0208057
0.0882888
-0.0100575
0.0558011
-0.000930161
0.0172044
0.00196344
0.00118971
0.938505
-0.0017799
0.976686
-0.00520688
0.928798
-0.00864289
0.882573
-0.0117953
0.836507
-0.0148269
0.794351
-0.0175186
0.753045
-0.0203172
0.714742
-0.022867
0.677718
-0.0248081
0.642225
-0.0259028
0.608545
-0.0265599
0.576627
-0.0267214
0.546293
-0.0264836
0.517579
-0.0257571
0.490494
-0.0247053
0.465108
-0.0234151
0.441213
-0.0218577
0.418848
-0.0200197
0.398076
-0.0180905
0.378885
-0.0162258
0.361
-0.0144987
0.344484
-0.0130173
0.329197
-0.0118631
0.31507
-0.0110553
0.301825
-0.0106506
0.289475
-0.0106459
0.277905
-0.0109653
0.266938
-0.0114129
0.256503
-0.0117533
0.246433
-0.0120966
0.236787
-0.0128245
0.227693
-0.0141574
0.218988
-0.0158551
0.210279
-0.0178042
0.201739
-0.0198179
0.19341
-0.0215606
0.185098
-0.0231697
0.177064
-0.0249152
0.169387
-0.0267122
0.161858
-0.0284007
0.154395
-0.0301234
0.147256
-0.0313948
0.139984
-0.0317871
0.131257
-0.0310788
0.12096
-0.027728
0.105638
-0.0200078
0.0805686
-0.00722936
0.0430227
-0.00105268
0.0110277
0.000910757
0.00210555
0.9364
-0.000511056
0.979302
-0.00397016
0.932257
-0.00741556
0.886019
-0.0109179
0.840009
-0.0145153
0.797948
-0.017709
0.756238
-0.0204941
0.717527
-0.0229005
0.680124
-0.025204
0.644529
-0.027038
0.610379
-0.028345
0.577934
-0.0290522
0.547
-0.0292155
0.517742
-0.0287029
0.489981
-0.0275486
0.463954
-0.0259758
0.439641
-0.0241563
0.417029
-0.0221715
0.396091
-0.0200493
0.376762
-0.0178439
0.358795
-0.0156213
0.342261
-0.0135412
0.327117
-0.0116825
0.313211
-0.0101405
0.300283
-0.00891289
0.288247
-0.00807104
0.277063
-0.00770911
0.266576
-0.00801092
0.256805
-0.00921036
0.247633
-0.0110137
0.238591
-0.0129999
0.229679
-0.0148542
0.220842
-0.0167549
0.21218
-0.0186478
0.203632
-0.0204002
0.195162
-0.0223913
0.187089
-0.0246123
0.179285
-0.0267483
0.171523
-0.0286624
0.163772
-0.0305747
0.156308
-0.0325303
0.149212
-0.0337525
0.141206
-0.0342967
0.131801
-0.0328086
0.119472
-0.0273685
0.100198
-0.0169443
0.0701444
-0.00391399
0.0299924
-0.000395757
0.00750949
0.000514999
0.00253419
0.933866
0.000187181
0.981649
-0.00325882
0.935703
-0.00676129
0.889521
-0.0103023
0.84355
-0.0139515
0.801597
-0.0177657
0.760052
-0.0216401
0.721401
-0.0250498
0.683534
-0.0278891
0.647368
-0.0301225
0.612612
-0.0316041
0.579415
-0.0324914
0.547887
-0.0327671
0.518018
-0.0324277
0.489642
-0.0313808
0.462907
-0.0296502
0.43791
-0.0273627
0.414741
-0.0247396
0.393468
-0.0219916
0.374014
-0.0192423
0.356045
-0.0165456
0.339565
-0.0141349
0.324706
-0.0120166
0.311093
-0.0103444
0.29861
-0.00918051
0.287083
-0.00854264
0.276425
-0.00835481
0.266388
-0.00838938
0.256839
-0.00851294
0.247756
-0.00899985
0.239078
-0.0100072
0.230687
-0.0117683
0.222603
-0.0139516
0.214363
-0.0163977
0.206078
-0.0192171
0.197982
-0.0219016
0.189773
-0.0242779
0.181662
-0.0266375
0.173882
-0.0292209
0.166356
-0.0318746
0.158961
-0.0342381
0.151576
-0.0355593
0.142527
-0.0358325
0.132074
-0.0334865
0.117126
-0.0263546
0.0930666
-0.0129296
0.0567194
-0.00249414
0.0195569
-0.000261703
0.00527705
0.000253297
0.00360044
0.930265
0.001324
0.983926
-0.00197947
0.939007
-0.00518245
0.892724
-0.00903239
0.8474
-0.012903
0.805468
-0.0167184
0.763868
-0.0206346
0.725317
-0.0245049
0.687404
-0.0281822
0.651045
-0.0314474
0.615877
-0.0340076
0.581975
-0.0357808
0.54966
-0.0366539
0.518891
-0.0367539
0.489742
-0.0361127
0.462266
-0.034676
0.436473
-0.0324924
0.412557
-0.0296899
0.390666
-0.0264775
0.370802
-0.0230825
0.35265
-0.0195719
0.336054
-0.016157
0.321291
-0.0130247
0.307961
-0.0102566
0.295842
-0.00793904
0.284766
-0.00623852
0.274725
-0.0052806
0.26543
-0.00523979
0.256798
-0.00615646
0.248673
-0.00783057
0.240752
-0.0100108
0.232867
-0.0122566
0.224849
-0.0147268
0.216834
-0.0174517
0.208803
-0.0200289
0.200559
-0.022609
0.192354
-0.0255293
0.184582
-0.0285969
0.17695
-0.0314804
0.169239
-0.0343791
0.16186
-0.0364726
0.153669
-0.0378634
0.143918
-0.0373406
0.131551
-0.0328272
0.112613
-0.0228921
0.0831315
-0.0075137
0.0413409
-0.0013552
0.0133984
-0.00016052
0.00408237
9.2777e-05
0.00331542
0.92695
0.00135551
0.985886
-0.00178854
0.942151
-0.00477451
0.89571
-0.00868068
0.851306
-0.0127269
0.809514
-0.0171834
0.768324
-0.0217238
0.729858
-0.0261733
0.691854
-0.0305103
0.655382
-0.0344271
0.619794
-0.0377601
0.585308
-0.0402198
0.55212
-0.0416847
0.520356
-0.042124
0.490181
-0.0416203
0.461762
-0.040126
0.434979
-0.0376974
0.410129
-0.034508
0.387476
-0.0307851
0.367079
-0.0268631
0.348728
-0.0229425
0.332134
-0.0190914
0.31744
-0.0155572
0.304427
-0.0125527
0.292838
-0.0101357
0.282349
-0.00838736
0.272976
-0.00721452
0.264257
-0.006551
0.256135
-0.00634386
0.248466
-0.00660194
0.24101
-0.00756001
0.233825
-0.0095308
0.22682
-0.0121556
0.219458
-0.015107
0.211754
-0.018589
0.204041
-0.0223071
0.196072
-0.0257747
0.18805
-0.0290214
0.180196
-0.0323436
0.172562
-0.0357187
0.165235
-0.0381698
0.15612
-0.0394861
0.145234
-0.0382005
0.130266
-0.0315765
0.105989
-0.017507
0.069062
-0.003945
0.0277789
-0.000545802
0.00999919
1.10788e-05
0.00352549
0.000103856
0.00380406
0.923146
0.00231709
0.987373
-0.000628867
0.945097
-0.00309523
0.898176
-0.00680849
0.855019
-0.0105696
0.813275
-0.0150792
0.772834
-0.0199161
0.734695
-0.0249626
0.6969
-0.0301211
0.660541
-0.0350779
0.624751
-0.0396459
0.589876
-0.0434642
0.555938
-0.0463085
0.5232
-0.0479405
0.491813
-0.0482995
0.462121
-0.0474564
0.434136
-0.04541
0.408082
-0.0422459
0.384312
-0.0381409
0.362974
-0.033381
0.343969
-0.0282909
0.327043
-0.0231466
0.312296
-0.0181607
0.299441
-0.0135633
0.288241
-0.00959359
0.278379
-0.00641484
0.269798
-0.0043247
0.262167
-0.00341351
0.255224
-0.00361367
0.248666
-0.00503702
0.242433
-0.0072675
0.236056
-0.00979617
0.229349
-0.0126974
0.22236
-0.0161201
0.215177
-0.0196681
0.207589
-0.0231391
0.199543
-0.0267677
0.191678
-0.0306887
0.184118
-0.0349098
0.176783
-0.038242
0.168567
-0.0403604
0.158239
-0.0407652
0.145639
-0.0369539
0.126455
-0.0273182
0.0963529
-0.0100363
0.0517801
-0.0016793
0.0194218
1.93054e-05
0.00830059
9.31917e-05
0.0034516
0.000197046
0.0031226
0.920023
0.00200222
0.988493
-0.00123914
0.948338
-0.00342288
0.90036
-0.00679095
0.858387
-0.0103132
0.816798
-0.0147738
0.777294
-0.0197696
0.73969
-0.0251802
0.702311
-0.0308892
0.66625
-0.0365994
0.630461
-0.0419812
0.595258
-0.0466817
0.560639
-0.0503926
0.526911
-0.0528851
0.494305
-0.0539306
0.463166
-0.0535285
0.433734
-0.0517433
0.406297
-0.0486677
0.381237
-0.044503
0.358809
-0.0395793
0.339045
-0.034144
0.321608
-0.0285214
0.306673
-0.0230924
0.294012
-0.0180839
0.283232
-0.0137572
0.274052
-0.0101987
0.266239
-0.00738875
0.259357
-0.0054056
0.253241
-0.00429016
0.247551
-0.00379895
0.241942
-0.00429218
0.236549
-0.00616256
0.231219
-0.00921353
0.225411
-0.0128024
0.218766
-0.0168267
0.211613
-0.0215448
0.204261
-0.0263649
0.196498
-0.0308608
0.188613
-0.0351472
0.181069
-0.038245
0.171665
-0.040497
0.16049
-0.0401916
0.145334
-0.0343999
0.120663
-0.0201523
0.0821053
-0.00468791
0.0363157
-0.000361498
0.0150954
0.000353052
0.00758604
0.000129824
0.00367483
0.000326872
0.00293152
0.917092
0.00302835
0.988396
3.12641e-05
0.951335
-0.00211437
0.902506
-0.00492366
0.861197
-0.00806919
0.819943
-0.0120254
0.781251
-0.0168042
0.744469
-0.0224333
0.70794
-0.0287064
0.672523
-0.0354804
0.637235
-0.0423607
0.602138
-0.0488866
0.567165
-0.054533
0.532558
-0.0588588
0.498631
-0.0615751
0.465883
-0.0624872
0.434646
-0.0615234
0.405333
-0.0587764
0.37849
-0.0543858
0.354419
-0.0486339
0.333293
-0.0419713
0.314945
-0.034742
0.299444
-0.0273963
0.286666
-0.0203688
0.276205
-0.0140116
0.267695
-0.00863792
0.260865
-0.00464792
0.255367
-0.00225493
0.250848
-0.00147276
0.246768
-0.00223894
0.242708
-0.0039876
0.238297
-0.00641785
0.233649
-0.00941647
0.228409
-0.0133414
0.222691
-0.0179457
0.216218
-0.0224563
0.208771
-0.0270915
0.201134
-0.0323011
0.193823
-0.0371068
0.185875
-0.0405597
0.175118
-0.0419166
0.161847
-0.0387296
0.142147
-0.0295912
0.111524
-0.0114155
0.0639295
-0.00152321
0.0264235
0.000577884
0.0129943
0.000647342
0.00751658
0.000219942
0.00410223
0.000546815
0.000661796
0.91643
0.00163389
0.987424
-0.00132413
0.954293
-0.00317828
0.90436
-0.0057957
0.863814
-0.00853291
0.82268
-0.0120087
0.784726
-0.0162803
0.748741
-0.0216074
0.713267
-0.0278951
0.67881
-0.0348414
0.644182
-0.0421716
0.609469
-0.0494137
0.574407
-0.0560653
0.539209
-0.0616263
0.504192
-0.0655713
0.469828
-0.067614
0.436689
-0.0677455
0.405465
-0.0659538
0.376698
-0.0623819
0.350847
-0.0571551
0.328066
-0.0506172
0.308408
-0.0432996
0.292126
-0.0357076
0.279074
-0.0282312
0.268728
-0.0212979
0.260762
-0.0151604
0.254728
-0.00971125
0.249918
-0.0051022
0.246238
-0.00185118
0.243517
-0.000301542
0.241159
-0.000433683
0.23843
-0.00204491
0.23526
-0.00524138
0.231606
-0.00945609
0.226905
-0.0142914
0.221053
-0.0200323
0.214512
-0.026146
0.207247
-0.032329
0.200006
-0.0369168
0.190462
-0.040133
0.178334
-0.0401774
0.161892
-0.0350222
0.136991
-0.0210268
0.0975291
-0.00380444
0.0467071
0.00144692
0.0211721
0.00226182
0.0121794
0.00161423
0.00816417
0.00059907
0.00511739
0.00114589
0.00238363
0.914046
0.00190472
0.987903
-0.000963866
0.957162
-0.00284942
0.906245
-0.00432428
0.865289
-0.00637177
0.824728
-0.00891044
0.787265
-0.0123866
0.752217
-0.0171795
0.71806
-0.0234872
0.685118
-0.0312518
0.651946
-0.0401846
0.618401
-0.0496513
0.583874
-0.0587842
0.548342
-0.0670216
0.512429
-0.0736468
0.476453
-0.0780303
0.441072
-0.0796102
0.407045
-0.0782727
0.375361
-0.0744621
0.347036
-0.0687272
0.322331
-0.0610607
0.300741
-0.051752
0.282818
-0.0417726
0.269095
-0.031754
0.25871
-0.022297
0.251305
-0.0140382
0.246469
-0.00774443
0.243624
-0.00333933
0.241833
-0.000193128
0.240371
0.0014071
0.239558
0.000741331
0.239095
-0.00140264
0.237404
-0.00450218
0.234705
-0.00904184
0.231445
-0.0148898
0.226901
-0.02104
0.220662
-0.0274803
0.213688
-0.0335851
0.206111
-0.0378825
0.19476
-0.0395794
0.180031
-0.0377662