/*--------------------------------*- C++ -*----------------------------------*\
| =========                 |                                                 |
| \\      /  F ield         | OpenFOAM: The Open Source CFD Toolbox           |
|  \\    /   O peration     | Version:  v1912                                 |
|   \\  /    A nd           | Website:  www.openfoam.com                      |
|    \\/     M anipulation  |                                                 |
\*---------------------------------------------------------------------------*/
FoamFile
{
    version     2.0;
    format      ascii;
    class       volVectorField;
    location    "0.46";
    object      U;
}
// * * * * * * * * * * * * * * * * * * * * * * * * * * * * * * * * * * * * * //

dimensions      [0 1 -1 0 0 0 0];


internalField   nonuniform List<vector> 
6600
(
(39.8411 -0.047586 0)
(40.0824 -0.0523183 2.72799e-20)
(40.1317 0.00517514 1.91912e-18)
(40.1683 0.0700335 0)
(40.1937 0.129749 2.36839e-18)
(40.2199 0.189356 8.05925e-20)
(40.2503 0.250676 -8.95117e-20)
(40.2809 0.304364 -9.81399e-20)
(40.3141 0.368453 1.98442e-18)
(40.3481 0.435808 -1.93502e-19)
(40.3714 0.514586 0)
(40.3774 0.623393 -2.37312e-18)
(40.3873 0.752584 0)
(40.4073 0.89713 -2.55708e-18)
(40.4128 1.06594 -3.3528e-18)
(40.3956 1.2434 -1.72257e-18)
(40.4088 1.44219 0)
(40.415 1.67088 0)
(40.4554 1.88171 2.56479e-18)
(40.5103 2.1429 -2.29078e-18)
(40.5186 2.43956 -3.30536e-19)
(40.5196 2.76913 -1.14397e-18)
(40.5233 3.14219 -2.01118e-18)
(40.4759 3.61824 4.02784e-19)
(40.4391 4.06661 1.43654e-18)
(40.4759 4.51077 0)
(40.5105 5.00317 3.03929e-18)
(40.4957 5.54885 0)
(40.4497 6.13544 -1.15623e-18)
(40.4376 6.74559 -6.02257e-19)
(40.4294 7.42246 -4.64532e-19)
(40.4188 8.19318 -5.1673e-19)
(40.4408 9.01325 -2.68691e-19)
(40.4883 9.89493 2.02123e-19)
(40.5068 10.8737 5.05355e-19)
(40.4985 11.9483 -1.80981e-19)
(40.4903 13.1155 1.19469e-19)
(40.5204 14.373 -8.0377e-19)
(40.5652 15.7276 8.03626e-19)
(40.6036 17.2017 -1.14241e-18)
(40.6479 18.7873 -8.61108e-19)
(40.7284 20.5083 0)
(40.8271 22.3353 1.49756e-18)
(40.9305 24.2957 -3.1561e-18)
(41.0252 26.3488 0)
(41.1684 28.6058 -3.926e-18)
(41.2756 30.8675 -9.1035e-18)
(41.8234 33.4822 0)
(40.4475 35.0871 0)
(30.768 28.9993 -4.28472e-18)
(39.7367 -0.0495918 1.59735e-18)
(40.1492 -0.0896772 -1.71426e-18)
(40.1941 -0.0182969 0)
(40.228 0.0531651 -3.24987e-20)
(40.2568 0.122461 2.2934e-18)
(40.2888 0.188829 7.85324e-20)
(40.3188 0.256107 -8.21591e-22)
(40.3429 0.329083 -9.6011e-20)
(40.3704 0.404335 0)
(40.3892 0.493242 -3.57369e-18)
(40.4207 0.580521 -1.27663e-19)
(40.4477 0.692133 2.16043e-18)
(40.4569 0.823354 2.20966e-18)
(40.4772 0.974255 1.46715e-18)
(40.524 1.14613 3.28716e-21)
(40.5544 1.35234 2.00254e-19)
(40.575 1.56376 -1.64745e-18)
(40.584 1.82383 0)
(40.5821 2.1258 0)
(40.6064 2.4267 2.30865e-18)
(40.6323 2.73397 2.88071e-19)
(40.6282 3.06737 -1.47714e-18)
(40.665 3.37025 -1.21382e-18)
(40.7037 3.71477 -1.26004e-18)
(40.7033 4.14187 -9.37808e-19)
(40.7326 4.60379 -3.93893e-19)
(40.7842 5.11104 -5.19888e-19)
(40.8358 5.64321 -4.07466e-19)
(40.8906 6.25969 1.08768e-18)
(40.9596 6.94342 3.99214e-19)
(41.0497 7.64922 -1.03032e-18)
(41.1182 8.40506 7.73441e-19)
(41.1676 9.25208 -4.86014e-20)
(41.2159 10.1694 -2.37035e-19)
(41.2725 11.1583 5.75303e-19)
(41.3634 12.2373 1.85111e-19)
(41.4778 13.3996 -1.35071e-18)
(41.6143 14.6534 1.05332e-19)
(41.7729 16.0157 1.09638e-18)
(41.9369 17.4672 1.36288e-18)
(42.1472 19.0282 0)
(42.3832 20.7082 0)
(42.6432 22.4743 2.19522e-18)
(42.9443 24.3683 -2.55881e-18)
(43.2858 26.3546 -7.20477e-18)
(43.7384 28.5288 4.05469e-18)
(44.1136 30.7113 1.1966e-17)
(44.85 33.1976 0)
(43.6039 34.3604 -1.06639e-17)
(32.28 28.1569 4.80115e-18)
(39.6372 -0.0360434 -5.1602e-20)
(40.2304 -0.108443 1.74765e-18)
(40.2476 0.00722374 1.82536e-18)
(40.2796 0.0712484 -4.44551e-22)
(40.306 0.139479 -1.89925e-19)
(40.3353 0.203657 7.69091e-20)
(40.3634 0.275514 0)
(40.4001 0.343252 0)
(40.4459 0.430772 0)
(40.4815 0.537328 1.92226e-18)
(40.5116 0.661958 -1.21613e-19)
(40.5545 0.805993 -2.17486e-18)
(40.5819 0.963424 -1.13078e-18)
(40.5924 1.14617 2.33752e-18)
(40.6056 1.32604 1.29396e-18)
(40.6184 1.53291 -1.80677e-19)
(40.6556 1.74935 3.36259e-18)
(40.7135 1.97441 -1.59226e-18)
(40.785 2.20334 -1.68553e-18)
(40.8475 2.49452 0)
(40.9233 2.81757 -9.23616e-19)
(40.9682 3.19629 1.16953e-18)
(41.0116 3.63566 1.22839e-18)
(41.0351 4.06946 1.2759e-18)
(41.0675 4.50573 1.04476e-18)
(41.1464 4.9559 -6.99016e-21)
(41.2369 5.46871 -1.41421e-19)
(41.2924 6.0252 -1.84816e-19)
(41.3397 6.59338 -1.10293e-19)
(41.4066 7.23049 4.39339e-19)
(41.5158 7.95219 3.85784e-20)
(41.6463 8.74422 0)
(41.8117 9.57584 5.9681e-19)
(42.0117 10.4724 -3.25665e-19)
(42.2016 11.4497 -8.65192e-19)
(42.3797 12.5078 -2.23988e-18)
(42.5699 13.6512 3.4201e-19)
(42.8186 14.8839 1.1539e-18)
(43.1084 16.2021 6.85567e-19)
(43.4182 17.6311 0)
(43.7569 19.1535 3.66722e-18)
(44.1624 20.7788 0)
(44.6186 22.4966 0)
(45.1099 24.3246 7.12051e-18)
(45.619 26.2334 4.10148e-18)
(46.2255 28.3067 -6.50015e-18)
(46.8598 30.4142 -6.82745e-18)
(47.7784 32.6582 0)
(46.5384 33.3481 -6.47475e-18)
(33.6908 26.7734 6.93888e-18)
(39.543 -0.0131788 -1.55672e-18)
(40.3286 -0.108038 1.27105e-20)
(40.3456 0.0146292 -1.87461e-18)
(40.3813 0.0697862 -1.88783e-18)
(40.4037 0.144745 -2.16011e-18)
(40.4286 0.21776 -1.1097e-18)
(40.4527 0.305079 -8.09297e-20)
(40.4815 0.399311 0)
(40.5259 0.500583 1.48651e-18)
(40.5698 0.613374 1.71983e-18)
(40.6068 0.743933 -1.1483e-19)
(40.6452 0.894486 -1.21694e-19)
(40.6889 1.05487 -9.77048e-19)
(40.7421 1.24603 -2.48011e-19)
(40.8102 1.4468 2.86891e-20)
(40.8616 1.66901 -1.62329e-19)
(40.8986 1.91738 -7.13144e-21)
(40.9246 2.22079 1.78764e-18)
(40.9724 2.50937 2.21345e-18)
(41.0379 2.81155 0)
(41.1087 3.11153 1.99164e-19)
(41.1716 3.41787 0)
(41.2669 3.73544 0)
(41.3613 4.11485 -1.80673e-19)
(41.3939 4.55864 4.53607e-19)
(41.4781 5.02398 4.98655e-19)
(41.6325 5.52799 -7.1116e-20)
(41.8045 6.10496 2.88181e-19)
(41.9557 6.74001 0)
(42.133 7.40975 0)
(42.3383 8.10621 -4.69026e-19)
(42.5406 8.8694 0)
(42.7377 9.72323 -8.67824e-20)
(42.9431 10.634 -1.12128e-18)
(43.1626 11.6041 1.91247e-18)
(43.4369 12.6617 2.90324e-18)
(43.765 13.7989 -4.60909e-18)
(44.1284 15.0063 1.7625e-18)
(44.537 16.309 5.95584e-19)
(44.9809 17.6772 6.98881e-19)
(45.4884 19.1389 -8.59544e-18)
(46.043 20.7027 0)
(46.6656 22.3239 0)
(47.3561 24.0428 -4.09702e-18)
(48.1199 25.8162 -6.29976e-18)
(48.9696 27.7403 -1.22567e-18)
(49.7976 29.7698 -9.78196e-18)
(50.7212 31.7918 1.08091e-17)
(49.2781 32.0546 1.42978e-17)
(34.7725 25.0989 0)
(39.4563 -0.00994245 -5.62639e-21)
(40.4097 -0.117962 1.53475e-18)
(40.4114 0.0458092 1.65816e-18)
(40.441 0.0868817 1.95562e-18)
(40.4565 0.162564 0)
(40.4814 0.238 6.11248e-20)
(40.522 0.324184 0)
(40.5742 0.427895 -8.22511e-20)
(40.62 0.550807 -2.80101e-18)
(40.6574 0.69094 -1.72198e-18)
(40.7057 0.841363 1.077e-19)
(40.7564 1.00763 1.12576e-19)
(40.7994 1.18725 -1.25286e-19)
(40.8338 1.3853 -1.10682e-18)
(40.8775 1.59975 -2.36629e-18)
(40.948 1.81676 1.51169e-19)
(41.0318 2.03148 -2.45915e-18)
(41.119 2.25411 1.525e-19)
(41.2123 2.52404 -7.36498e-19)
(41.3229 2.83083 -3.24949e-19)
(41.4543 3.1748 9.11701e-19)
(41.56 3.58094 0)
(41.6522 4.0103 0)
(41.7938 4.4203 -1.21262e-19)
(41.9076 4.8644 -2.55474e-19)
(42.0313 5.32741 -1.1076e-19)
(42.1728 5.8337 8.13932e-21)
(42.3286 6.34966 0)
(42.4878 6.91861 -1.6687e-19)
(42.6578 7.56659 1.85878e-19)
(42.8906 8.2927 4.7672e-19)
(43.1657 9.06621 1.67979e-18)
(43.485 9.88498 -5.8362e-19)
(43.8621 10.7758 9.65855e-19)
(44.2574 11.7363 -1.0748e-18)
(44.6476 12.7426 0)
(45.0472 13.8196 1.74271e-18)
(45.527 14.9886 5.7796e-18)
(46.0717 16.2247 -3.14357e-18)
(46.652 17.5565 -3.85116e-18)
(47.2919 18.9526 4.95443e-18)
(48.0095 20.4228 0)
(48.7769 21.9542 0)
(49.6072 23.5625 -5.9759e-18)
(50.4933 25.2214 1.31069e-17)
(51.5165 27.0141 3.46562e-18)
(52.5601 28.9136 5.75106e-18)
(53.4812 30.6311 -1.27393e-17)
(51.6792 30.4823 8.53574e-19)
(35.4557 23.1467 -1.90509e-17)
(39.359 -0.00210716 1.37245e-18)
(40.5067 -0.110699 -8.66422e-20)
(40.51 0.0606839 -1.69036e-18)
(40.5405 0.0939144 8.66342e-19)
(40.5543 0.182389 0)
(40.571 0.273389 1.12627e-18)
(40.605 0.382948 -3.64578e-20)
(40.6496 0.500645 -1.20598e-18)
(40.7042 0.622677 1.40501e-18)
(40.7479 0.760992 0)
(40.7932 0.917755 9.63701e-20)
(40.8558 1.08051 6.89406e-19)
(40.9329 1.26042 -9.49706e-19)
(41.0239 1.45214 1.21102e-19)
(41.0961 1.67267 1.17388e-18)
(41.1759 1.91537 -1.3228e-19)
(41.25 2.19962 7.96861e-19)
(41.3258 2.48441 -1.36834e-19)
(41.4206 2.76983 1.16166e-19)
(41.5202 3.05792 2.5079e-19)
(41.6393 3.32634 2.61068e-19)
(41.7869 3.60539 1.70344e-20)
(41.9353 3.95267 5.3978e-20)
(42.0928 4.35096 2.62683e-20)
(42.2353 4.79841 0)
(42.4277 5.27304 1.04702e-19)
(42.69 5.7991 -1.38638e-19)
(42.9594 6.37849 -5.67337e-20)
(43.2406 6.9912 -1.2868e-19)
(43.5347 7.63134 -3.3962e-19)
(43.8664 8.29948 1.2376e-18)
(44.2249 9.03485 -1.17441e-18)
(44.5811 9.85052 0)
(44.9606 10.7173 0)
(45.354 11.6359 0)
(45.8201 12.6489 0)
(46.3715 13.7194 4.34174e-18)
(46.966 14.8262 -8.29799e-18)
(47.6191 16.0098 0)
(48.3282 17.2408 5.75443e-20)
(49.1019 18.5447 -4.82317e-19)
(49.9461 19.92 -9.16774e-18)
(50.8844 21.3335 5.0598e-18)
(51.8916 22.8037 0)
(52.9749 24.2856 4.39877e-18)
(54.0829 25.878 -1.58359e-17)
(55.2205 27.6961 1.12548e-17)
(56.0017 29.18 8.06861e-18)
(53.6778 28.631 2.87889e-17)
(35.6757 20.9172 -2.15661e-17)
(39.2643 0.0063303 -1.37064e-18)
(40.5847 -0.110674 -2.82811e-18)
(40.5833 0.0984315 2.40184e-20)
(40.6192 0.130554 -8.69722e-19)
(40.6302 0.223708 8.56431e-19)
(40.6652 0.318584 -3.06976e-20)
(40.7162 0.43504 1.06911e-18)
(40.7667 0.566744 1.21081e-18)
(40.8173 0.712025 1.23327e-18)
(40.8762 0.862969 -4.27385e-20)
(40.9349 1.0261 -6.733e-19)
(40.9939 1.20026 -9.43981e-20)
(41.0511 1.3879 8.45478e-19)
(41.1219 1.58446 0)
(41.2074 1.78741 0)
(41.3042 1.98624 4.93763e-20)
(41.4324 2.19287 7.64921e-19)
(41.5497 2.43752 0)
(41.6851 2.70478 3.78725e-20)
(41.8601 3.02048 -4.25552e-19)
(42.0314 3.39181 -2.94336e-19)
(42.2102 3.76568 -6.37143e-20)
(42.39 4.14625 0)
(42.6029 4.51978 7.8641e-20)
(42.7995 4.94084 1.06398e-19)
(42.9764 5.40159 -1.18695e-19)
(43.2156 5.87162 0)
(43.4989 6.3788 0)
(43.7796 6.94565 1.72353e-19)
(44.086 7.57933 7.65971e-19)
(44.4611 8.27413 -2.04845e-18)
(44.8856 9.00195 8.84322e-19)
(45.3624 9.76839 1.33472e-18)
(45.9049 10.5963 -3.20078e-18)
(46.5137 11.4903 5.24957e-18)
(47.1219 12.4098 1.62577e-18)
(47.7298 13.3803 -2.98204e-18)
(48.4368 14.4379 3.78285e-18)
(49.2154 15.5457 -5.57999e-18)
(50.0351 16.7155 7.43457e-20)
(50.9396 17.9222 -5.79903e-19)
(51.9118 19.1838 4.72015e-18)
(52.9235 20.469 6.65284e-18)
(54.0068 21.7931 -7.39081e-18)
(55.1682 23.1289 4.52546e-18)
(56.4932 24.5838 0)
(57.7571 26.2197 6.77588e-18)
(58.37 27.3904 9.82206e-18)
(55.3064 26.4902 -2.03856e-17)
(35.3857 18.4321 -6.38664e-18)
(39.1688 -0.00162362 1.21335e-18)
(40.6715 -0.0938418 1.36461e-18)
(40.6841 0.115207 1.15151e-20)
(40.7374 0.149833 -7.56513e-19)
(40.7376 0.280115 -1.71345e-18)
(40.7711 0.395026 9.16022e-19)
(40.8284 0.519132 -2.02204e-18)
(40.8881 0.650504 5.09038e-19)
(40.9464 0.794158 -1.19945e-18)
(41.009 0.946959 -6.04681e-19)
(41.0803 1.10688 1.34696e-18)
(41.1673 1.27551 -7.91818e-19)
(41.2735 1.44917 -6.121e-19)
(41.382 1.64526 4.62014e-21)
(41.4796 1.86159 -2.4844e-19)
(41.5821 2.11588 2.69501e-19)
(41.6949 2.36832 -3.54896e-19)
(41.8214 2.62045 0)
(41.9374 2.88273 0)
(42.0771 3.11248 0)
(42.2632 3.35978 1.80031e-20)
(42.4745 3.65503 2.74139e-20)
(42.6826 3.99525 2.69834e-19)
(42.9213 4.36959 8.64688e-20)
(43.2009 4.77295 0)
(43.4944 5.22729 0)
(43.8282 5.74263 -7.19796e-19)
(44.2174 6.27749 4.59161e-19)
(44.6335 6.84174 -1.5141e-19)
(45.0555 7.43079 1.829e-19)
(45.5238 8.05254 1.39195e-19)
(46.0437 8.73181 1.55197e-18)
(46.5759 9.47933 -8.34009e-19)
(47.1387 10.2676 3.09048e-18)
(47.6995 11.0862 -2.28411e-18)
(48.3365 11.9926 -1.21499e-18)
(49.0951 12.9483 2.83778e-19)
(49.8944 13.9142 2.36622e-18)
(50.7524 14.9226 2.52343e-18)
(51.6798 15.971 3.63268e-18)
(52.6639 17.0676 -5.71664e-19)
(53.7299 18.2009 6.17732e-18)
(54.8864 19.3638 -6.87147e-18)
(56.1038 20.5493 0)
(57.3798 21.724 0)
(58.6276 22.9651 0)
(59.8984 24.4699 0)
(60.2593 25.3775 0)
(56.2974 24.1146 -1.20466e-17)
(34.4227 15.7332 1.97027e-17)
(39.0792 -0.00401689 -1.21582e-18)
(40.7757 -0.0788595 0)
(40.7897 0.146608 0)
(40.8359 0.184301 7.69691e-19)
(40.8535 0.339654 8.15069e-19)
(40.9105 0.450636 -9.16209e-19)
(40.9678 0.591675 9.83837e-19)
(41.0305 0.732953 -5.1066e-19)
(41.1025 0.881399 4.81146e-19)
(41.1762 1.03856 6.02169e-19)
(41.2524 1.20404 -5.96791e-19)
(41.3217 1.38127 4.71686e-19)
(41.4066 1.56038 8.66114e-19)
(41.5173 1.73648 0)
(41.6348 1.90755 2.94935e-19)
(41.7662 2.07834 -2.9389e-19)
(41.9095 2.28036 9.82478e-21)
(42.0777 2.49864 -1.93035e-21)
(42.2941 2.76937 -9.83299e-20)
(42.5116 3.09326 0)
(42.7383 3.39629 0)
(42.9859 3.72331 -3.73932e-19)
(43.2426 4.05386 2.0079e-19)
(43.5029 4.40208 7.7682e-19)
(43.7709 4.77743 2.54753e-19)
(44.0538 5.1601 -9.96508e-19)
(44.3866 5.58129 1.66531e-18)
(44.7696 6.04868 -1.81596e-18)
(45.1888 6.57182 1.04699e-18)
(45.639 7.15117 -9.22343e-19)
(46.1545 7.7781 5.50854e-19)
(46.7331 8.44245 -1.92862e-18)
(47.3515 9.11971 1.15226e-18)
(48.024 9.83454 -2.1899e-18)
(48.8102 10.6106 0)
(49.6244 11.3997 -1.97002e-18)
(50.4162 12.2223 -2.12256e-18)
(51.3039 13.1185 3.43561e-19)
(52.2718 14.0659 4.12296e-18)
(53.2755 15.0204 -4.18089e-18)
(54.365 15.9951 -5.53086e-19)
(55.51 17.012 -6.9656e-18)
(56.698 18.0261 1.62682e-17)
(57.9476 19.0585 9.02294e-19)
(59.2829 20.0571 1.06877e-18)
(60.7763 21.159 -6.404e-18)
(62.044 22.4463 0)
(62.0208 23.0518 1.08144e-17)
(56.8537 21.5345 -5.7758e-18)
(32.8627 12.9412 0)
(39.0199 0.0121045 4.14198e-21)
(40.8953 -0.0527386 -1.24777e-22)
(40.9204 0.197538 -6.13984e-19)
(40.9604 0.219965 0)
(40.9747 0.410363 -1.11938e-20)
(41.0247 0.518699 -3.59535e-19)
(41.0967 0.652749 0)
(41.1691 0.791306 4.10458e-19)
(41.244 0.938665 -5.09674e-19)
(41.3253 1.08636 3.02e-20)
(41.4275 1.24031 4.25801e-19)
(41.5425 1.39495 -2.78842e-19)
(41.6612 1.56924 -2.78029e-19)
(41.7929 1.75675 0)
(41.9338 1.96684 0)
(42.079 2.18636 0)
(42.2396 2.39563 2.72962e-20)
(42.3747 2.60641 4.75179e-22)
(42.5287 2.79126 2.71026e-19)
(42.7318 3.00097 -5.88813e-20)
(42.971 3.23388 1.565e-19)
(43.2475 3.48934 2.75509e-19)
(43.5543 3.78947 -1.31357e-18)
(43.9076 4.11364 -1.29631e-18)
(44.2811 4.49021 0)
(44.6659 4.89896 9.37322e-19)
(45.0899 5.33474 -2.35368e-18)
(45.5813 5.78612 1.60023e-18)
(46.1065 6.26055 -8.78377e-19)
(46.6364 6.76723 5.23437e-19)
(47.2264 7.29337 -7.50571e-19)
(47.8772 7.86434 2.74097e-18)
(48.5822 8.51179 -3.24565e-18)
(49.338 9.20338 4.27414e-18)
(50.0636 9.89717 1.82639e-18)
(50.8184 10.6416 -4.30151e-18)
(51.7171 11.4278 5.31941e-18)
(52.6759 12.2224 -3.44079e-18)
(53.682 13.0193 2.55755e-20)
(54.7606 13.8681 0)
(55.8955 14.7369 5.75987e-18)
(57.1061 15.6116 3.85736e-18)
(58.3725 16.5029 3.91894e-19)
(59.6951 17.3908 -1.09043e-17)
(61.0625 18.2818 -4.53509e-19)
(62.4388 19.2703 -7.53062e-18)
(63.4387 20.2162 0)
(63.0819 20.6203 1.18526e-17)
(56.533 18.8115 -1.9787e-17)
(30.4932 10.0995 0)
(38.9906 0.0265534 0)
(41.014 -0.0404396 0)
(41.0615 0.232137 3.38283e-19)
(41.0949 0.252795 -1.95112e-20)
(41.1278 0.452012 3.30756e-19)
(41.1825 0.559256 3.72737e-19)
(41.2458 0.704675 0)
(41.3224 0.843287 -4.114e-19)
(41.4119 0.983395 3.67421e-19)
(41.4958 1.13112 0)
(41.5799 1.28708 -6.00307e-19)
(41.6715 1.4471 -4.79215e-20)
(41.7919 1.59544 -1.67516e-20)
(41.9244 1.7402 1.86827e-20)
(42.0771 1.87194 0)
(42.2369 2.03548 0)
(42.4364 2.20782 3.80808e-20)
(42.686 2.41377 -1.37546e-19)
(42.9391 2.65715 9.20516e-20)
(43.1895 2.89014 -4.47139e-20)
(43.4637 3.15369 1.13882e-19)
(43.7734 3.41107 -7.1427e-20)
(44.0776 3.68328 7.63048e-19)
(44.4125 3.95885 3.58947e-19)
(44.7899 4.2505 -6.5646e-19)
(45.1843 4.57239 -1.07737e-18)
(45.61 4.93288 8.26991e-19)
(46.1015 5.33326 1.26169e-18)
(46.6475 5.76627 0)
(47.2294 6.24231 0)
(47.8741 6.76959 0)
(48.5996 7.34495 -1.92007e-18)
(49.3299 7.8983 -1.35004e-18)
(50.0732 8.4568 -1.47832e-18)
(50.9577 9.07693 2.06141e-18)
(51.9499 9.7274 2.5353e-18)
(52.9051 10.3914 -1.28043e-18)
(53.9115 11.0813 3.65957e-18)
(55.0063 11.8326 -2.13729e-18)
(56.1289 12.5509 -2.82536e-18)
(57.3113 13.2862 -3.46764e-18)
(58.5448 14.0481 3.8668e-18)
(59.842 14.7934 0)
(61.1898 15.54 6.13848e-18)
(62.6303 16.2335 -3.57813e-18)
(64.1902 17.1003 4.25016e-18)
(64.9739 17.7564 0)
(63.9355 18.0306 -6.18731e-18)
(55.7033 16.0021 3.63062e-18)
(27.5281 7.36877 0)
(38.9828 0.0291977 2.19654e-19)
(41.1591 -0.017015 0)
(41.208 0.264781 5.39254e-19)
(41.2499 0.284978 -2.73694e-19)
(41.2738 0.490887 -3.20593e-19)
(41.3363 0.590331 9.66703e-21)
(41.4051 0.726166 -1.07587e-20)
(41.4745 0.861518 0)
(41.5641 0.992034 -3.58203e-19)
(41.6673 1.12405 1.39365e-19)
(41.7905 1.25041 1.73709e-19)
(41.9076 1.39385 -1.64583e-19)
(42.0369 1.54688 4.18462e-20)
(42.1894 1.7136 6.80323e-21)
(42.3567 1.88771 -1.65735e-21)
(42.5433 2.03564 0)
(42.6936 2.20304 -9.40328e-20)
(42.8768 2.33654 1.6757e-19)
(43.1054 2.49201 4.28665e-20)
(43.3707 2.64705 -1.2654e-20)
(43.6743 2.821 6.5815e-20)
(44.0277 3.0282 0)
(44.4253 3.26847 1.45014e-19)
(44.8386 3.53967 5.9024e-19)
(45.2885 3.83304 8.37395e-19)
(45.7761 4.1423 1.08323e-18)
(46.2991 4.48626 0)
(46.8824 4.8372 -8.83512e-19)
(47.5024 5.21651 -1.89362e-18)
(48.1371 5.6197 1.10412e-18)
(48.819 6.01868 -2.40454e-18)
(49.5586 6.43155 -1.21635e-18)
(50.3888 6.93149 2.25967e-18)
(51.3181 7.50727 -8.45792e-19)
(52.2174 8.0647 -2.07952e-18)
(53.0495 8.62272 -1.17784e-18)
(54.0091 9.21113 -1.56975e-18)
(55.0744 9.83422 0)
(56.1684 10.4263 -2.548e-18)
(57.324 11.0638 5.66191e-18)
(58.5546 11.6997 3.50309e-18)
(59.8439 12.3295 -4.17564e-18)
(61.1468 12.9602 5.44353e-18)
(62.4903 13.5686 -2.85315e-18)
(63.8564 14.1992 7.48211e-18)
(65.2471 14.9517 1.70545e-19)
(65.677 15.3444 0)
(63.9299 15.3713 1.28382e-17)
(53.7837 13.1356 -1.09758e-17)
(23.719 4.77936 -4.20419e-18)
(38.9799 0.0271788 -2.19837e-19)
(41.331 -0.0325847 2.16653e-19)
(41.385 0.266606 -2.56516e-19)
(41.427 0.279825 2.69974e-19)
(41.4458 0.497662 1.33866e-19)
(41.503 0.594459 9.01929e-21)
(41.5757 0.734794 -4.83025e-21)
(41.6498 0.865412 0)
(41.7358 0.992932 1.26431e-19)
(41.8173 1.12329 -2.03021e-19)
(41.9145 1.25575 0)
(42.0269 1.37207 4.25827e-21)
(42.1453 1.48325 -3.00654e-20)
(42.2898 1.57154 1.67461e-20)
(42.4485 1.68967 -6.41177e-20)
(42.6622 1.79936 -6.24835e-21)
(42.9207 1.93924 1.66577e-20)
(43.174 2.09654 0)
(43.4477 2.259 -1.26753e-19)
(43.7281 2.44256 3.14715e-19)
(44.0468 2.61223 -4.02315e-20)
(44.3961 2.77763 0)
(44.7782 2.94894 0)
(45.2002 3.1334 -3.27411e-19)
(45.6589 3.34712 1.39876e-19)
(46.1491 3.57941 -1.03462e-18)
(46.6693 3.8443 4.24217e-19)
(47.2563 4.1425 -2.51776e-19)
(47.9136 4.45001 9.12596e-19)
(48.6088 4.79957 3.95827e-19)
(49.3713 5.21568 1.43965e-18)
(50.2238 5.69392 -1.39529e-18)
(51.0649 6.13131 8.84176e-19)
(51.8498 6.51568 -1.00764e-18)
(52.7413 6.95836 -1.24953e-18)
(53.839 7.45436 -1.40798e-18)
(54.939 7.96126 0)
(56.0297 8.44443 3.35219e-18)
(57.1948 8.98282 -1.26076e-18)
(58.3862 9.49241 -3.07778e-18)
(59.5939 10.0058 3.68931e-18)
(60.8516 10.5202 -1.30685e-19)
(62.1809 11.0184 -2.87475e-18)
(63.5642 11.5067 -3.99367e-20)
(65.0891 11.9866 -3.8095e-18)
(66.317 12.5207 -9.05577e-18)
(66.4089 12.7614 5.26401e-18)
(63.5563 12.6894 0)
(51.1736 10.2886 -7.78757e-18)
(19.1555 2.36498 1.49001e-17)
(38.9733 0.0263626 -3.69796e-22)
(41.5093 -0.022489 -2.18112e-19)
(41.5496 0.276125 5.37133e-20)
(41.5945 0.285318 1.93846e-21)
(41.6074 0.493546 -1.33712e-19)
(41.6645 0.580717 0)
(41.7299 0.713327 0)
(41.7992 0.834608 3.78785e-21)
(41.8954 0.947881 -1.97386e-19)
(42.0077 1.05092 6.16866e-20)
(42.1261 1.16084 -2.15316e-21)
(42.245 1.2785 3.36303e-21)
(42.3792 1.40795 -1.71578e-20)
(42.5371 1.52361 3.08386e-21)
(42.7067 1.61764 9.87328e-20)
(42.8507 1.72611 -3.63882e-20)
(43.0425 1.7938 5.64052e-20)
(43.2705 1.88189 2.19001e-20)
(43.5452 1.94812 -2.55963e-19)
(43.8559 2.03582 -2.03702e-19)
(44.2041 2.14675 8.99877e-21)
(44.6132 2.28393 -6.182e-20)
(45.057 2.43214 0)
(45.5279 2.5973 -3.67866e-19)
(46.0425 2.77201 9.58506e-21)
(46.6189 2.96793 1.34537e-19)
(47.224 3.19055 1.09907e-19)
(47.8748 3.43344 3.02878e-19)
(48.5815 3.71174 0)
(49.31 4.00761 2.39965e-19)
(50.0741 4.26297 1.3956e-18)
(50.8809 4.50173 1.33801e-18)
(51.7647 4.81378 -7.67325e-19)
(52.8027 5.24807 1.56099e-18)
(53.8855 5.66719 -1.27243e-18)
(54.8206 6.06629 -8.01071e-19)
(55.786 6.46667 0)
(56.8832 6.91776 -2.23491e-18)
(58.0199 7.3436 -1.44669e-18)
(59.1958 7.76922 1.61616e-18)
(60.4612 8.18924 -1.96978e-18)
(61.7635 8.60661 2.36767e-18)
(63.0654 9.00236 0)
(64.3869 9.39461 1.75055e-18)
(65.771 9.8506 0)
(66.6335 10.1792 2.43742e-18)
(66.4263 10.2673 -5.78354e-18)
(62.232 9.95867 3.31113e-18)
(47.3821 7.4317 0)
(14.3149 0.478631 1.09784e-18)
(38.9759 0.0301381 -4.27969e-23)
(41.6825 -0.0379014 -4.66064e-23)
(41.7353 0.263629 -5.53581e-20)
(41.7682 0.258882 -2.1489e-22)
(41.7755 0.479988 -1.57629e-21)
(41.8287 0.555486 -2.2559e-22)
(41.8896 0.684188 2.51107e-22)
(41.9512 0.797247 -4.20403e-22)
(42.0262 0.907302 5.87845e-20)
(42.1043 1.01967 6.78329e-22)
(42.2101 1.1093 1.78425e-22)
(42.3201 1.18633 -2.13368e-22)
(42.4354 1.24087 1.81245e-21)
(42.5697 1.32717 -1.89645e-20)
(42.7633 1.3801 -4.48052e-20)
(42.9877 1.45331 3.59787e-20)
(43.2179 1.52327 -5.47846e-20)
(43.4716 1.59938 -2.85531e-21)
(43.7406 1.68533 -3.96403e-21)
(44.0445 1.75609 0)
(44.3844 1.80492 -7.16595e-21)
(44.7699 1.86696 -4.9579e-21)
(45.2076 1.92408 5.54228e-21)
(45.6933 2.00984 0)
(46.2063 2.11935 0)
(46.7584 2.236 3.70253e-19)
(47.3655 2.37448 0)
(48.0261 2.52853 -3.0331e-19)
(48.763 2.68757 0)
(49.5492 2.89112 1.55803e-20)
(50.3921 3.18594 -6.22075e-19)
(51.3344 3.55734 4.42218e-20)
(52.3077 3.90384 -9.41945e-19)
(53.173 4.14104 8.43637e-20)
(54.0178 4.41672 5.71025e-19)
(55.0952 4.73003 9.01775e-19)
(56.2928 5.08013 -3.18211e-20)
(57.4685 5.39955 0)
(58.6634 5.72683 -2.31247e-20)
(59.8852 6.06814 2.77634e-20)
(61.1013 6.39848 0)
(62.3555 6.69926 -3.97001e-20)
(63.6497 6.99858 -1.93423e-19)
(65.0286 7.2722 -1.52849e-18)
(66.4994 7.59018 -3.19507e-20)
(67.0131 7.75382 0)
(65.9562 7.74768 0)
(60.1999 7.22309 4.9413e-19)
(43.0702 4.73675 -4.89678e-19)
(9.86626 -0.773988 1.09644e-18)
(38.9699 0.0203087 -8.37676e-20)
(41.8455 -0.0417665 -9.29868e-20)
(41.8839 0.248385 -4.98259e-20)
(41.9288 0.238216 -5.42239e-20)
(41.9323 0.446341 -5.24344e-20)
(41.9764 0.510398 5.50219e-20)
(42.026 0.63786 0)
(42.0937 0.736851 0)
(42.1852 0.817134 -2.43891e-20)
(42.2769 0.90618 -6.78245e-22)
(42.3739 0.999951 1.25016e-20)
(42.4858 1.10183 5.54942e-22)
(42.6084 1.16771 -1.00086e-20)
(42.7414 1.21713 2.91794e-20)
(42.8663 1.27628 5.78912e-20)
(43.0301 1.2942 0)
(43.2289 1.30937 0)
(43.4749 1.29402 2.85489e-21)
(43.7615 1.28301 3.96345e-21)
(44.0759 1.29287 -1.79953e-19)
(44.4444 1.31233 7.16486e-21)
(44.8654 1.33336 0)
(45.3264 1.36239 0)
(45.8426 1.38733 -6.94377e-20)
(46.4073 1.4194 -3.46083e-19)
(47.0339 1.48531 1.11463e-19)
(47.6924 1.57211 0)
(48.4024 1.70416 -3.35954e-19)
(49.1746 1.86406 0)
(49.9726 2.02817 -1.55768e-20)
(50.8203 2.13389 0)
(51.6898 2.20631 0)
(52.5805 2.326 2.49269e-19)
(53.6287 2.59797 2.94418e-19)
(54.8551 2.87447 0)
(55.9671 3.16213 0)
(56.948 3.4134 3.1811e-20)
(58.0163 3.6878 0)
(59.1638 3.9901 2.31155e-20)
(60.3337 4.24372 -9.4138e-19)
(61.5608 4.48618 1.11713e-18)
(62.8164 4.73965 1.23292e-19)
(64.0983 4.94619 9.61224e-20)
(65.405 5.19633 -1.72178e-18)
(66.5019 5.4127 -1.03517e-18)
(66.6693 5.38855 6.0949e-18)
(65.0535 5.24026 -2.89718e-18)
(57.2718 4.5501 -3.56936e-18)
(37.4533 2.10195 2.92385e-18)
(6.66347 -1.28533 0)
(38.9404 0.00936979 8.3521e-20)
(41.994 -0.0790267 -8.95709e-20)
(42.0541 0.205802 4.90012e-20)
(42.086 0.18418 -5.21715e-20)
(42.0864 0.401184 5.59097e-20)
(42.1291 0.455267 -5.6872e-20)
(42.1631 0.585732 -3.23372e-21)
(42.2092 0.681474 3.60044e-21)
(42.2649 0.778835 2.17784e-20)
(42.3374 0.852778 2.85958e-21)
(42.4157 0.907432 -1.29908e-20)
(42.5064 0.934378 -6.67235e-21)
(42.6038 0.998833 -9.86087e-21)
(42.7357 1.0171 -2.52754e-20)
(42.903 1.04114 -1.72908e-19)
(43.0812 1.04928 1.34547e-20)
(43.2792 1.05356 -1.50187e-20)
(43.5007 1.04633 1.92581e-19)
(43.7661 1.01499 3.73743e-20)
(44.0591 0.951322 1.37992e-19)
(44.4026 0.892485 0)
(44.8 0.825798 0)
(45.2515 0.768311 0)
(45.7548 0.732109 0)
(46.2968 0.704873 3.34956e-19)
(46.9032 0.676755 -8.68261e-19)
(47.5661 0.660299 0)
(48.2767 0.645418 1.02341e-18)
(49.076 0.648968 0)
(49.9367 0.713677 0)
(50.8273 0.876278 -1.31873e-18)
(51.8327 1.13205 8.41532e-19)
(52.9093 1.3719 -1.97023e-18)
(53.905 1.49397 5.6129e-19)
(54.7486 1.64323 0)
(55.7034 1.77865 0)
(56.9178 1.97558 1.10936e-18)
(58.1694 2.19017 -3.83653e-18)
(59.3797 2.34721 0)
(60.5909 2.53289 -2.86037e-18)
(61.8293 2.71927 4.40635e-18)
(63.0766 2.86225 -5.23971e-18)
(64.31 3.01947 3.01336e-18)
(65.7563 3.17528 -3.64961e-18)
(66.4794 3.2491 9.3835e-18)
(66.2127 3.30898 -8.75915e-18)
(62.9457 3.09612 6.04489e-18)
(52.871 2.23732 -1.36552e-17)
(30.8859 -0.0699861 1.64801e-17)
(4.19878 -1.17666 -1.06354e-17)
(38.8897 0.00189749 1.67682e-19)
(42.1332 -0.0961503 -1.90485e-21)
(42.2001 0.16586 0)
(42.2284 0.144608 1.05408e-19)
(42.2237 0.34425 2.31737e-19)
(42.2615 0.384282 -7.38331e-21)
(42.2885 0.518685 0)
(42.3532 0.590736 0)
(42.4159 0.669254 5.3677e-21)
(42.473 0.764194 -5.98468e-21)
(42.5411 0.857002 6.30551e-20)
(42.6151 0.899318 -1.94225e-20)
(42.6919 0.93035 2.10938e-20)
(42.769 0.945537 -4.93465e-20)
(42.8773 0.926393 1.10727e-19)
(43.0147 0.89187 2.58428e-20)
(43.189 0.821992 -2.80843e-19)
(43.4031 0.739319 -5.5807e-19)
(43.6611 0.651743 0)
(43.952 0.565312 3.51577e-19)
(44.2927 0.449932 4.72368e-19)
(44.7024 0.330042 0)
(45.168 0.203531 -8.18084e-19)
(45.6962 0.0675309 0)
(46.2765 -0.0415525 0)
(46.9174 -0.129172 8.65639e-19)
(47.6254 -0.179942 5.13301e-19)
(48.3835 -0.185211 1.35258e-18)
(49.191 -0.171009 0)
(50.0432 -0.165772 0)
(50.9598 -0.211361 6.14613e-19)
(51.8702 -0.301068 7.81704e-19)
(52.8051 -0.322639 3.06742e-18)
(53.8156 -0.206771 1.04561e-19)
(55.0714 -0.0839523 1.21423e-19)
(56.3932 0.0990514 -3.60698e-18)
(57.4581 0.248083 -1.62466e-19)
(58.5045 0.356036 5.10359e-18)
(59.6366 0.545286 3.15188e-18)
(60.8102 0.711967 1.84978e-18)
(61.9565 0.841327 4.59175e-18)
(63.1301 0.980453 3.16742e-19)
(64.392 1.09725 -5.96298e-18)
(65.5753 1.2591 -3.49196e-18)
(65.8562 1.26476 -1.04787e-17)
(65.1263 1.16447 1.26223e-17)
(60.6411 1.00168 -5.74788e-18)
(47.7637 0.325852 0)
(22.5702 -1.61694 0)
(2.52896 -0.862015 2.09953e-18)
(38.8166 -0.0110493 -5.1501e-19)
(42.2346 -0.130365 -1.9904e-19)
(42.3325 0.118398 2.07405e-19)
(42.3593 0.0732114 -6.57468e-21)
(42.3496 0.276146 -4.58338e-19)
(42.3869 0.304324 7.63196e-21)
(42.3983 0.448498 0)
(42.4272 0.539148 2.44204e-19)
(42.4729 0.620008 6.00567e-21)
(42.5151 0.677448 -1.76578e-21)
(42.5763 0.715843 -1.50052e-19)
(42.6248 0.776442 2.52763e-20)
(42.6873 0.793506 3.6282e-21)
(42.7564 0.806752 4.5997e-20)
(42.8514 0.778632 0)
(42.9589 0.736055 0)
(43.0834 0.663577 2.16524e-19)
(43.2515 0.550312 4.03678e-19)
(43.4723 0.395001 0)
(43.7371 0.233487 -3.50466e-19)
(44.0401 0.0648915 -4.70791e-19)
(44.4038 -0.125419 -1.6723e-19)
(44.8295 -0.318699 2.17857e-19)
(45.325 -0.51692 7.41281e-19)
(45.8741 -0.724951 3.15463e-19)
(46.4931 -0.922779 4.60552e-19)
(47.1741 -1.12827 -1.60868e-18)
(47.9291 -1.31173 -1.37669e-18)
(48.7888 -1.46474 1.71752e-18)
(49.7015 -1.54193 -2.14597e-18)
(50.657 -1.50931 0)
(51.7433 -1.37773 0)
(52.8525 -1.28922 1.11503e-19)
(53.9766 -1.27946 -2.36615e-18)
(54.9401 -1.22759 3.01224e-18)
(55.7872 -1.20621 5.53971e-18)
(56.9266 -1.15939 -2.11166e-18)
(58.2047 -1.01368 -5.29164e-18)
(59.4562 -0.93316 -6.292e-18)
(60.6501 -0.879786 -3.88371e-18)
(61.9055 -0.803995 -2.74488e-19)
(63.1589 -0.725612 5.13824e-18)
(64.4629 -0.644483 0)
(65.3281 -0.61855 3.40735e-18)
(65.4106 -0.541002 4.09771e-18)
(63.4181 -0.40074 4.99762e-18)
(56.5378 -0.376142 1.74494e-17)
(40.4951 -0.855433 -6.44505e-18)
(13.9345 -2.10476 0)
(1.63097 -0.326247 0)
(38.7201 -0.0189554 -1.6427e-20)
(42.3086 -0.146778 3.82878e-19)
(42.4321 0.0558566 -2.13558e-19)
(42.4505 0.0196301 4.64309e-19)
(42.4593 0.205024 2.48482e-19)
(42.4984 0.226418 -5.63333e-22)
(42.5231 0.358644 -8.33069e-21)
(42.5858 0.432507 -2.28828e-19)
(42.6183 0.551333 -1.65442e-20)
(42.6425 0.667115 -1.21719e-20)
(42.6623 0.722137 8.56108e-20)
(42.6811 0.76899 1.04495e-20)
(42.699 0.784481 4.43581e-20)
(42.7256 0.774073 -1.225e-20)
(42.7734 0.727842 2.16694e-20)
(42.8465 0.643897 -2.41718e-20)
(42.9359 0.533571 0)
(43.0572 0.393246 -2.74012e-19)
(43.2296 0.207533 0)
(43.4608 -0.0264984 0)
(43.7455 -0.279702 0)
(44.1056 -0.552914 -3.13963e-19)
(44.5307 -0.841184 1.13096e-18)
(45.0397 -1.12274 -1.01826e-18)
(45.6119 -1.39579 0)
(46.2587 -1.65654 -4.46638e-19)
(46.9869 -1.87505 -1.58242e-18)
(47.7607 -2.06304 -2.65031e-18)
(48.5939 -2.22195 -2.60743e-18)
(49.5214 -2.39186 2.15874e-18)
(50.4749 -2.61657 -2.6526e-18)
(51.4209 -2.84994 1.5594e-18)
(52.464 -2.98118 4.01815e-18)
(53.4803 -2.99135 0)
(54.6631 -3.00101 3.02185e-18)
(56.115 -2.96749 -7.40021e-18)
(57.3672 -2.87671 -1.71037e-19)
(58.4739 -2.88398 5.23558e-18)
(59.5796 -2.83541 3.1323e-18)
(60.7486 -2.71164 0)
(61.8774 -2.602 4.47701e-18)
(63.0283 -2.51222 -5.37588e-18)
(64.2783 -2.34611 1.17132e-17)
(64.7004 -2.23447 0)
(64.183 -2.26014 -1.72102e-17)
(61.2636 -2.0628 4.7347e-18)
(51.9493 -2.00979 -5.67521e-18)
(32.8502 -2.21672 -6.44137e-18)
(9.1351 -1.9893 1.43761e-17)
(1.03401 0.0261554 -7.20235e-21)
(38.5944 -0.0342708 3.65161e-19)
(42.3385 -0.207622 -4.20514e-19)
(42.5018 -0.0133573 4.55879e-19)
(42.5403 -0.0688251 -9.5396e-19)
(42.5487 0.109624 5.41925e-19)
(42.5953 0.131064 -3.33776e-20)
(42.6044 0.288186 3.10695e-19)
(42.6421 0.355688 0)
(42.6748 0.449441 3.0555e-19)
(42.7026 0.534513 -3.14938e-19)
(42.7145 0.628726 3.74164e-21)
(42.7304 0.693281 1.47725e-20)
(42.7254 0.741227 -4.30693e-20)
(42.7203 0.74882 6.11963e-20)