/*--------------------------------*- C++ -*----------------------------------*\
| =========                 |                                                 |
| \\      /  F ield         | OpenFOAM: The Open Source CFD Toolbox           |
|  \\    /   O peration     | Version:  v1912                                 |
|   \\  /    A nd           | Website:  www.openfoam.com                      |
|    \\/     M anipulation  |                                                 |
\*---------------------------------------------------------------------------*/
FoamFile
{
    version     2.0;
    format      ascii;
    class       surfaceScalarField;
    location    "0.45";
    object      phi;
}
// * * * * * * * * * * * * * * * * * * * * * * * * * * * * * * * * * * * * * //

dimensions      [0 3 -1 0 0 0 0];
oriented        oriented;


internalField   nonuniform List<scalar> 
13060
(
0.00619768
0.98789
-0.994088
0.00880199
0.944038
-0.946643
0.0112338
0.897188
-0.89962
0.0134521
0.852276
-0.854494
0.0155592
0.809704
-0.811811
0.0175006
0.76924
-0.771182
0.019022
0.730992
-0.732514
0.0201082
0.694909
-0.695995
0.0208987
0.660763
-0.661554
0.0214072
0.628255
-0.628764
0.0216433
0.597487
-0.597723
0.0216561
0.568429
-0.568441
0.0213882
0.540821
-0.540553
0.0209919
0.514526
-0.514129
0.0206642
0.489299
-0.488972
0.0204615
0.465283
-0.465081
0.0202934
0.44244
-0.442272
0.0201709
0.420476
-0.420354
0.0201076
0.399537
-0.399474
0.0201768
0.379559
-0.379628
0.0203561
0.360525
-0.360705
0.0204594
0.342502
-0.342605
0.0203771
0.325206
-0.325124
0.0201563
0.308733
-0.308512
0.0196443
0.293234
-0.292722
0.0189484
0.278278
-0.277583
0.0183911
0.263877
-0.263319
0.0179931
0.250326
-0.249928
0.0175853
0.237613
-0.237205
0.0170069
0.225594
-0.225015
0.0163294
0.214084
-0.213406
0.0157452
0.203322
-0.202738
0.0151192
0.19328
-0.192654
0.0144174
0.183727
-0.183025
0.0136255
0.174674
-0.173882
0.0127029
0.166247
-0.165325
0.0116234
0.158365
-0.157286
0.0104734
0.150916
-0.149766
0.00931872
0.143921
-0.142766
0.00813055
0.137435
-0.136247
0.00690076
0.131347
-0.130117
0.00567447
0.125603
-0.124377
0.00446501
0.120267
-0.119057
0.00326448
0.11535
-0.114149
0.00211304
0.110559
-0.109408
0.00102258
0.106211
-0.105121
-2.23805e-05
0.101772
-0.100727
-0.00124525
0.0985145
-0.0972917
-0.00157785
0.0906771
-0.0903445
0.06361
-0.0651879
0.00673234
0.981158
0.00907954
0.941691
0.0111311
0.895137
0.0127998
0.850607
0.0142182
0.808285
0.015398
0.768061
0.0161306
0.730259
0.0165459
0.694493
0.0167234
0.660586
0.0166136
0.628365
0.0163779
0.597723
0.0162441
0.568562
0.0161706
0.540894
0.0160434
0.514653
0.0157953
0.489548
0.0155161
0.465563
0.0152692
0.442687
0.0150232
0.420722
0.0147081
0.399852
0.0143059
0.379961
0.0139064
0.360925
0.0136654
0.342743
0.0134695
0.325402
0.0134662
0.308736
0.0136832
0.293017
0.0138048
0.278157
0.0135803
0.264101
0.0131769
0.25073
0.0127334
0.238057
0.0122519
0.226075
0.0116413
0.214694
0.0109231
0.20404
0.0101504
0.194052
0.00932163
0.184555
0.00844157
0.175554
0.00757523
0.167113
0.00671268
0.159228
0.00580285
0.151826
0.00483853
0.144885
0.00388263
0.138391
0.00293698
0.132292
0.00198493
0.126555
0.00106403
0.121188
0.000206132
0.116207
-0.000690122
0.111456
-0.00149147
0.107013
-0.00230819
0.102588
-0.0025829
0.0987892
-0.00214573
0.09024
0.0614643
0.00653194
0.974626
0.00847576
0.939747
0.00993675
0.893676
0.0110831
0.849461
0.0120322
0.807336
0.012719
0.767374
0.0130187
0.72996
0.0130181
0.694494
0.0128163
0.660788
0.012496
0.628686
0.0120116
0.598207
0.0114099
0.569164
0.010807
0.541497
0.0103137
0.515146
0.00994429
0.489917
0.00969099
0.465816
0.00949088
0.442887
0.00933918
0.420874
0.00931853
0.399873
0.00945747
0.379822
0.00954949
0.360833
0.00946277
0.34283
0.00920035
0.325665
0.00864843
0.309288
0.00796322
0.293702
0.0074071
0.278713
0.0070489
0.264459
0.0067695
0.251009
0.00639077
0.238435
0.00588261
0.226583
0.00539067
0.215186
0.00494245
0.204489
0.00444141
0.194554
0.00387401
0.185123
0.00327861
0.176149
0.00260937
0.167783
0.0018665
0.159971
0.00113352
0.152559
0.000420112
0.145599
-0.000330609
0.139142
-0.00108001
0.133042
-0.00175223
0.127227
-0.00236661
0.121802
-0.00292154
0.116762
-0.00336922
0.111903
-0.00373854
0.107382
-0.00402386
0.102874
-0.00374554
0.0985109
-0.0027287
0.0892231
0.0587356
0.00620953
0.968416
0.0078407
0.938116
0.00892221
0.892594
0.00939094
0.848992
0.00968784
0.807039
0.00958084
0.767481
0.00920575
0.730335
0.00872369
0.694976
0.00816222
0.661349
0.00756025
0.629288
0.00705024
0.598717
0.00661427
0.5696
0.006194
0.541917
0.00575163
0.515589
0.00530525
0.490363
0.004906
0.466215
0.0046409
0.443152
0.00430681
0.421208
0.00379884
0.400381
0.00325891
0.380362
0.00290425
0.361188
0.00267894
0.343055
0.00262361
0.32572
0.00274141
0.309171
0.00295211
0.293491
0.00284483
0.27882
0.0024702
0.264834
0.0020652
0.251414
0.00173403
0.238767
0.00139676
0.22692
0.000853886
0.215729
0.000236077
0.205106
-0.000373953
0.195164
-0.00104409
0.185793
-0.0017557
0.176861
-0.00236788
0.168395
-0.00292411
0.160527
-0.00349391
0.153128
-0.00406761
0.146172
-0.00457978
0.139654
-0.0050333
0.133495
-0.00544109
0.127635
-0.00576246
0.122124
-0.00597224
0.116972
-0.00605755
0.111989
-0.00597832
0.107303
-0.00581615
0.102711
-0.00510367
0.0977984
-0.00341947
0.0875389
0.0553161
0.00577664
0.96264
0.00640294
0.93749
0.00667507
0.892322
0.0067808
0.848886
0.00669341
0.807127
0.0061792
0.767995
0.00553989
0.730974
0.0048511
0.695665
0.00410734
0.662093
0.00329019
0.630105
0.00239847
0.599609
0.00158902
0.570409
0.000906638
0.5426
0.000373343
0.516122
-9.01611e-05
0.490827
-0.000549621
0.466675
-0.000884992
0.443487
-0.000995729
0.421319
-0.000869695
0.400255
-0.000796933
0.380289
-0.000940434
0.361331
-0.00118399
0.343298
-0.00165541
0.326191
-0.00240668
0.309922
-0.00313793
0.294222
-0.00356954
0.279252
-0.00387304
0.265137
-0.00423199
0.251773
-0.00462866
0.239163
-0.00502401
0.227316
-0.00533864
0.216044
-0.00567961
0.205447
-0.00604132
0.195525
-0.00637379
0.186125
-0.00674825
0.177235
-0.00721322
0.16886
-0.00767289
0.160987
-0.00805171
0.153507
-0.00835433
0.146475
-0.00862068
0.139921
-0.00882522
0.1337
-0.00891816
0.127728
-0.00890361
0.122109
-0.0087525
0.116821
-0.00847198
0.111708
-0.00803478
0.106866
-0.00750999
0.102187
-0.00638906
0.0966775
-0.00410439
0.0852543
0.0512117
0.00475946
0.95788
0.00484248
0.937407
0.0045297
0.892635
0.00398507
0.849431
0.00319571
0.807916
0.00214911
0.769042
0.00103718
0.732086
-2.23359e-05
0.696724
-0.00098199
0.663052
-0.00177728
0.6309
-0.00248385
0.600316
-0.00315219
0.571078
-0.00374571
0.543193
-0.00425299
0.516629
-0.00469458
0.491268
-0.00506341
0.467043
-0.00556772
0.443991
-0.00623845
0.42199
-0.00697133
0.400988
-0.00751208
0.38083
-0.00779972
0.361619
-0.00790409
0.343403
-0.00777285
0.32606
-0.00748804
0.309637
-0.00745121
0.294186
-0.00775096
0.279552
-0.00815117
0.265538
-0.00852269
0.252145
-0.00888281
0.239523
-0.00928687
0.22772
-0.00977729
0.216534
-0.0102377
0.205908
-0.0106597
0.195947
-0.0111181
0.186584
-0.0115288
0.177646
-0.0118156
0.169147
-0.0120474
0.161218
-0.0122591
0.153719
-0.012396
0.146612
-0.0124194
0.139944
-0.0123327
0.133613
-0.012167
0.127562
-0.0118846
0.121827
-0.011471
0.116407
-0.0109383
0.111176
-0.010223
0.10615
-0.00936315
0.101327
-0.00780273
0.0951171
-0.00478091
0.0822324
0.0464308
0.00404481
0.953835
0.00297528
0.938476
0.00160438
0.894006
0.000623677
0.850412
-0.00067835
0.809218
-0.00192061
0.770284
-0.00307584
0.733241
-0.00424606
0.697895
-0.00545297
0.664259
-0.00656401
0.632011
-0.0075495
0.601301
-0.00840483
0.571933
-0.00913393
0.543922
-0.0097345
0.51723
-0.0102622
0.491796
-0.0106692
0.46745
-0.010839
0.444161
-0.0108203
0.421971
-0.0107826
0.40095
-0.0109128
0.38096
-0.0112234
0.361929
-0.0117488
0.343928
-0.0124962
0.326807
-0.013347
0.310488
-0.0138755
0.294714
-0.0141273
0.279803
-0.0143829
0.265793
-0.0146934
0.252455
-0.0150096
0.23984
-0.015208
0.227918
-0.0154008
0.216727
-0.0156336
0.206141
-0.0158035
0.196117
-0.0158845
0.186665
-0.0160014
0.177763
-0.0161619
0.169307
-0.0162559
0.161312
-0.0162427
0.153706
-0.0161368
0.146506
-0.0159645
0.139772
-0.0156869
0.133336
-0.0152605
0.127136
-0.0147136
0.12128
-0.0140346
0.115728
-0.0132417
0.110383
-0.0123945
0.105303
-0.0111574
0.10009
-0.00914095
0.0931006
-0.00543906
0.0785305
0.0409918
0.00287578
0.95096
0.00124824
0.940104
-0.000615437
0.89587
-0.00244741
0.852244
-0.00434067
0.811111
-0.00606105
0.772004
-0.00759287
0.734773
-0.00888084
0.699183
-0.00998554
0.665364
-0.0110223
0.633048
-0.0119768
0.602256
-0.0128252
0.572781
-0.0135331
0.54463
-0.0141016
0.517798
-0.0145867
0.492281
-0.0151618
0.468026
-0.0158919
0.444891
-0.0167215
0.422801
-0.01743
0.401659
-0.0178512
0.381382
-0.0179938
0.362072
-0.0179127
0.343847
-0.0175946
0.326489
-0.017391
0.310284
-0.0175339
0.294857
-0.0178274
0.280097
-0.0181262
0.266092
-0.01844
0.252769
-0.0187424
0.240142
-0.0191267
0.228303
-0.0194838
0.217084
-0.0197634
0.20642
-0.0200159
0.19637
-0.0202469
0.186896
-0.0203519
0.177868
-0.0203038
0.169259
-0.0201634
0.161172
-0.0199739
0.153516
-0.0197075
0.146239
-0.0193046
0.139369
-0.0187745
0.132805
-0.0181601
0.126522
-0.0174277
0.120547
-0.016566
0.114867
-0.0155909
0.109407
-0.0145776
0.10429
-0.01297
0.0984821
-0.0105131
0.0906437
-0.00604448
0.074062
0.0349473
0.001813
0.949147
-0.000707777
0.942625
-0.00328125
0.898443
-0.00550963
0.854472
-0.0075092
0.813111
-0.00931217
0.773807
-0.0109958
0.736457
-0.0125588
0.700746
-0.0139827
0.666788
-0.0152305
0.634296
-0.016355
0.60338
-0.0173885
0.573815
-0.0183126
0.545554
-0.0191264
0.518612
-0.0197585
0.492913
-0.0200638
0.468331
-0.0201283
0.444956
-0.0200684
0.422741
-0.0201751
0.401765
-0.0205713
0.381778
-0.0211856
0.362686
-0.0219802
0.344642
-0.0228483
0.327358
-0.023486
0.310922
-0.023822
0.295193
-0.0240112
0.280286
-0.0241663
0.266247
-0.024315
0.252917
-0.0244174
0.240245
-0.0244191
0.228304
-0.024445
0.21711
-0.0245031
0.206478
-0.0244546
0.196321
-0.0242979
0.186739
-0.024152
0.177722
-0.0240175
0.169124
-0.0238055
0.16096
-0.0234596
0.15317
-0.02299
0.14577
-0.0224416
0.13882
-0.0217869
0.132151
-0.0209982
0.125733
-0.0201107
0.11966
-0.0191209
0.113877
-0.0180031
0.10829
-0.0167213
0.103008
-0.0148664
0.0966272
-0.0119071
0.0876844
-0.00662984
0.0687847
0.0283174
0.000884122
0.948263
-0.00232849
0.945837
-0.0051557
0.90127
-0.00788178
0.857198
-0.0103431
0.815572
-0.012477
0.775941
-0.0143508
0.738331
-0.0159528
0.702348
-0.0173635
0.668199
-0.0186483
0.63558
-0.0197948
0.604527
-0.020803
0.574823
-0.0216708
0.546422
-0.0224461
0.519387
-0.02327
0.493737
-0.0242325
0.469293
-0.0252523
0.445976
-0.0261495
0.423638
-0.0266778
0.402293
-0.0268732
0.381973
-0.0268563
0.362669
-0.0266432
0.344429
-0.0264502
0.327164
-0.0263859
0.310858
-0.0265722
0.295379
-0.026832
0.280546
-0.0270773
0.266492
-0.0273228
0.253163
-0.0276204
0.240542
-0.0278931
0.228577
-0.0280448
0.217262
-0.0280904
0.206524
-0.0281281
0.196359
-0.0281436
0.186755
-0.0280043
0.177583
-0.0276848
0.168805
-0.0272384
0.160514
-0.0267369
0.152669
-0.0261753
0.145208
-0.0254754
0.13812
-0.0246512
0.131327
-0.0237443
0.124826
-0.022725
0.11864
-0.0215899
0.112742
-0.0204901
0.10719
-0.018956
0.101474
-0.0168057
0.094477
-0.0132163
0.0840949
-0.00716724
0.0627356
0.0211502
0.000263771
0.947999
-0.00354407
0.949645
-0.00688738
0.904614
-0.00990399
0.860215
-0.0124755
0.818144
-0.0147944
0.77826
-0.0168918
0.740428
-0.0187921
0.704248
-0.020467
0.669874
-0.0219476
0.637061
-0.0232667
0.605846
-0.0244993
0.576056
-0.0256301
0.547553
-0.0265867
0.520344
-0.0272098
0.49436
-0.0275537
0.469637
-0.0276838
0.446106
-0.027924
0.423878
-0.0284463
0.402816
-0.0291514
0.382678
-0.0299851
0.363503
-0.0307918
0.345235
-0.0315126
0.327885
-0.0319827
0.311328
-0.032218
0.295615
-0.0323556
0.280684
-0.0324395
0.266576
-0.0324864
0.25321
-0.0324101
0.240466
-0.0322899
0.228457
-0.0322283
0.2172
-0.032158
0.206454
-0.0319212
0.196122
-0.031556
0.186389
-0.0311944
0.177221
-0.0308458
0.168456
-0.0304351
0.160103
-0.0298812
0.152115
-0.0291767
0.144504
-0.0283881
0.137332
-0.0274979
0.130436
-0.0264999
0.123828
-0.0254343
0.117575
-0.0243048
0.111612
-0.0230826
0.105968
-0.0211985
0.0995898
-0.0186304
0.0919089
-0.0141285
0.079593
-0.0069038
0.0555109
0.0142464
-0.000256844
0.948256
-0.00449433
0.953882
-0.00800361
0.908123
-0.0113715
0.863583
-0.014352
0.821124
-0.0168986
0.780807
-0.0190621
0.742592
-0.0210205
0.706206
-0.0227765
0.67163
-0.0243517
0.638636
-0.0256948
0.607189
-0.0268529
0.577214
-0.0278947
0.548595
-0.0289547
0.521404
-0.0301809
0.495587
-0.0314881
0.470944
-0.0326672
0.447285
-0.0334025
0.424613
-0.0337469
0.40316
-0.0338801
0.382812
-0.0338417
0.363465
-0.0337452
0.345139
-0.0336292
0.327769
-0.0337219
0.31142
-0.0339467
0.295839
-0.0341955
0.280932
-0.0344172
0.266798
-0.0346482
0.253441
-0.0349108
0.240728
-0.035085
0.228631
-0.0350896
0.217205
-0.0349819
0.206346
-0.0349118
0.196052
-0.0348198
0.186297
-0.0345635
0.176965
-0.0341152
0.168008
-0.0335116
0.159499
-0.03285
0.151453
-0.0321466
0.1438
-0.0313084
0.136494
-0.030361
0.129489
-0.0293161
0.122783
-0.0281583
0.116417
-0.0270634
0.110517
-0.0255462
0.104451
-0.0235223
0.0975659
-0.0202491
0.0886357
-0.0143209
0.0736648
-0.00550027
0.0466903
0.00874613
-0.000478103
0.948734
-0.00485393
0.958258
-0.00868822
0.911957
-0.0122253
0.86712
-0.0152502
0.824149
-0.0180967
0.783653
-0.0205562
0.745051
-0.0227446
0.708394
-0.0247158
0.673601
-0.0265251
0.640445
-0.0282125
0.608876
-0.0297485
0.57875
-0.0310757
0.549922
-0.0320258
0.522354
-0.0326013
0.496162
-0.0329483
0.471291
-0.0333984
0.447735
-0.0341115
0.425327
-0.0349194
0.403968
-0.0358366
0.383729
-0.0366972
0.364325
-0.0375046
0.345946
-0.0381076
0.328372
-0.0384426
0.311755
-0.0386227
0.296019
-0.0387435
0.281053
-0.0388335
0.266888
-0.0388072
0.253414
-0.0387026
0.240624
-0.0386189
0.228547
-0.0386065
0.217192
-0.0385342
0.206274
-0.0382435
0.195761
-0.0378139
0.185868
-0.0373642
0.176515
-0.0369148
0.167559
-0.0364406
0.159025
-0.0358482
0.150861
-0.0350948
0.143047
-0.0342463
0.135645
-0.0332719
0.128515
-0.0322095
0.121721
-0.0311647
0.115372
-0.0299894
0.109342
-0.0282275
0.102689
-0.0256982
0.0950366
-0.0213639
0.0843013
-0.0138912
0.0661921
-0.00376311
0.0365622
0.00498302
-0.000901372
0.949635
-0.00530501
0.962662
-0.00913272
0.915785
-0.0127765
0.870763
-0.0158789
0.827252
-0.0186923
0.786467
-0.0211631
0.747522
-0.0235216
0.710753
-0.0256564
0.675736
-0.0275556
0.642345
-0.0291955
0.610516
-0.0306762
0.58023
-0.0321707
0.551417
-0.03381
0.523993
-0.0354638
0.497816
-0.0369584
0.472786
-0.0379733
0.44875
-0.038562
0.425915
-0.0388343
0.40424
-0.0389531
0.383847
-0.0390021
0.364374
-0.038956
0.3459
-0.0390531
0.328469
-0.0392831
0.311985
-0.0395321
0.296268
-0.0397695
0.281291
-0.0400181
0.267137
-0.0403013
0.253698
-0.0405806
0.240903
-0.0407543
0.228721
-0.0407212
0.217159
-0.0406222
0.206175
-0.0406044
0.195743
-0.0405691
0.185832
-0.0403827
0.176329
-0.0400088
0.167185
-0.0394396
0.158456
-0.0387771
0.150198
-0.0380741
0.142344
-0.037238
0.134809
-0.0363222
0.127599
-0.0353692
0.120768
-0.034428
0.114431
-0.0329119
0.107826
-0.030751
0.100528
-0.0274575
0.0917431
-0.0219776
0.0788215
-0.0133919
0.0576064
-0.00225155
0.0254219
0.00273147
-0.000279094
0.949914
-0.00450571
0.966889
-0.00846783
0.919747
-0.0121678
0.874463
-0.0154161
0.8305
-0.0185322
0.789583
-0.0212533
0.750243
-0.0237903
0.71329
-0.0261981
0.678144
-0.028486
0.644633
-0.0306439
0.612674
-0.0325461
0.582133
-0.034034
0.552904
-0.0350753
0.525035
-0.0358451
0.498586
-0.036685
0.473626
-0.0376983
0.449763
-0.0387503
0.426967
-0.0397453
0.405235
-0.0406407
0.384743
-0.0415309
0.365264
-0.0422529
0.346622
-0.0427047
0.328921
-0.0429612
0.312242
-0.0431588
0.296466
-0.0433207
0.281452
-0.043415
0.267231
-0.0434317
0.253714
-0.0434329
0.240904
-0.0435143
0.228802
-0.0436974
0.217342
-0.0437837
0.206261
-0.0436416
0.195601
-0.0433614
0.185552
-0.0430231
0.17599
-0.0426548
0.166817
-0.0422914
0.158092
-0.041844
0.149751
-0.0412166
0.141717
-0.0404847
0.134077
-0.0396382
0.126752
-0.0388002
0.11993
-0.0376934
0.113324
-0.0360289
0.106162
-0.0337785
0.0982773
-0.0298496
0.0878141
-0.0226021
0.071574
-0.0113591
0.0463634
-0.00115227
0.015215
0.0015792
-4.47666e-06
0.949919
-0.00395318
0.970837
-0.00777641
0.92357
-0.0112883
0.877975
-0.0144396
0.833651
-0.0175414
0.792684
-0.0203833
0.753085
-0.0231496
0.716056
-0.0257021
0.680696
-0.0279697
0.6469
-0.0300844
0.614789
-0.0322055
0.584254
-0.0344563
0.555155
-0.0367189
0.527297
-0.0387102
0.500577
-0.040185
0.475101
-0.0412069
0.450785
-0.0419075
0.427668
-0.0423454
0.405673
-0.0425351
0.384932
-0.042629
0.365358
-0.0427488
0.346742
-0.0429937
0.329166
-0.0432558
0.312504
-0.043524
0.296734
-0.043805
0.281733
-0.0441431
0.267569
-0.0445333
0.254105
-0.0449429
0.241314
-0.0452343
0.229094
-0.0453427
0.217451
-0.0454513
0.20637
-0.0456558
0.195806
-0.0458312
0.185728
-0.0458808
0.17604
-0.0457728
0.166709
-0.0454512
0.157771
-0.0449875
0.149287
-0.0444819
0.141211
-0.0438429
0.133438
-0.0432197
0.126129
-0.042562
0.119272
-0.0413248
0.112087
-0.0395496
0.104386
-0.0364892
0.095217
-0.0310204
0.0823453
-0.021643
0.0621967
-0.00775414
0.0324745
-0.000886838
0.00834768
0.000692362
0.000812835
0.949106
-0.00258707
0.974237
-0.00612706
0.92711
-0.00958616
0.881434
-0.0128707
0.836936
-0.0160447
0.795858
-0.0190576
0.756098
-0.0220891
0.719088
-0.0250759
0.683683
-0.0279897
0.649814
-0.0306422
0.617441
-0.0328175
0.586429
-0.0345087
0.556846
-0.0359887
0.528777
-0.037479
0.502067
-0.0390551
0.476677
-0.0405693
0.452299
-0.0419357
0.429034
-0.0431574
0.406895
-0.0441743
0.385949
-0.0450205
0.366205
-0.0455757
0.347297
-0.0458815
0.329472
-0.0460863
0.312709
-0.0462616
0.29691
-0.0464098
0.281882
-0.046526
0.267685
-0.046644
0.254223
-0.0468289
0.241499
-0.0472117
0.229477
-0.0477329
0.217972
-0.0481754
0.206812
-0.0484407
0.196071
-0.0485817
0.185869
-0.0486171
0.176075
-0.0485566
0.166648
-0.0484742
0.157688
-0.0483259
0.149139
-0.04799
0.140875
-0.0475976
0.133046
-0.0472345
0.125766
-0.0463453
0.118383
-0.0449499
0.110692
-0.0427503
0.102187
-0.0387225
0.0911892
-0.030567
0.0741897
-0.0172119
0.0488416
-0.00395246
0.0192151
-0.000290269
0.00468549
0.000402095
0.00115576
0.94795
-0.00153084
0.976924
-0.00467553
0.930255
-0.00775018
0.884509
-0.0108073
0.839993
-0.0140001
0.799051
-0.0171322
0.75923
-0.0202679
0.722223
-0.0231644
0.686579
-0.0260313
0.652681
-0.0290084
0.620418
-0.0321193
0.58954
-0.0351962
0.559923
-0.0379318
0.531513
-0.0401189
0.504254
-0.0418185
0.478376
-0.0431567
0.453637
-0.0441116
0.429989
-0.0447555
0.407539
-0.0451151
0.386309
-0.0453799
0.366469
-0.045715
0.347632
-0.0459897
0.329746
-0.0461945
0.312914
-0.0463874
0.297103
-0.0466768
0.282171
-0.0470875
0.268096
-0.0476093
0.254744
-0.048173
0.242063
-0.0486929
0.229997
-0.0491579
0.218437
-0.0497021
0.207356
-0.0503294
0.196698
-0.0509026
0.186442
-0.051349
0.176522
-0.0516836
0.166983
-0.0518412
0.157846
-0.0518073
0.149105
-0.0516933
0.140761
-0.0516044
0.132957
-0.0511575
0.125319
-0.050209
0.117434
-0.0486525
0.109135
-0.0455139
0.0990481
-0.0386427
0.084318
-0.0271442
0.0626912
-0.01086
0.0325575
-0.00206882
0.0104238
-1.61774e-05
0.00263284
0.000385921
0.00277397
0.945176
0.000363444
0.979334
-0.00248754
0.933106
-0.00545747
0.887479
-0.00857796
0.843113
-0.0117378
0.802211
-0.014971
0.762463
-0.0184426
0.725695
-0.0219505
0.690087
-0.0253462
0.656077
-0.0283551
0.623427
-0.0309794
0.592164
-0.0334445
0.562388
-0.0359169
0.533985
-0.038375
0.506712
-0.0406662
0.480668
-0.0427332
0.455704
-0.0445295
0.431786
-0.0460453
0.409055
-0.0472161
0.38748
-0.0479239
0.367177
-0.0482768
0.347985
-0.0484584
0.329928
-0.0485528
0.313008
-0.0485725
0.297122
-0.0485521
0.282151
-0.0485852
0.268129
-0.0487671
0.254926
-0.0491919
0.242487
-0.0498947
0.230699
-0.0507962
0.219338
-0.051771
0.208331
-0.0527106
0.197638
-0.0535797
0.187311
-0.0543162
0.177258
-0.0548387
0.167505
-0.0552064
0.158214
-0.0554828
0.149381
-0.0556912
0.14097
-0.0556921
0.132958
-0.0551581
0.124785
-0.0540821
0.116358
-0.0516566
0.10671
-0.046092
0.0934835
-0.0361129
0.0743389
-0.0194217
0.046
-0.00509753
0.0182333
-0.000574729
0.00590102
0.000225983
0.00183213
0.000611903
0.00304322
0.942133
0.00168148
0.980696
-0.000820019
0.935607
-0.00339944
0.890058
-0.00615744
0.845871
-0.00919008
0.805244
-0.0123732
0.765646
-0.0155766
0.728898
-0.0189052
0.693416
-0.0226461
0.659818
-0.0266699
0.627451
-0.0307294
0.596224
-0.0344594
0.566118
-0.0377099
0.537236
-0.0405064
0.509509
-0.0428647
0.483026
-0.0447662
0.457606
-0.0461885
0.433208
-0.0471656
0.410032
-0.0478199
0.388134
-0.0483428
0.3677
-0.048713
0.348355
-0.0488448
0.33006
-0.0488547
0.313018
-0.0488788
0.297146
-0.0490114
0.282283
-0.0492842
0.268402
-0.0496805
0.255323
-0.0502438
0.243051
-0.0510288
0.231484
-0.052007
0.220317
-0.0531496
0.209474
-0.0544535
0.198942
-0.0557107
0.188568
-0.0568087
0.178356
-0.057783
0.168479
-0.0585958
0.159027
-0.0592204
0.150006
-0.0597149
0.141464
-0.059707
0.13295
-0.0591477
0.124226
-0.0574244
0.114635
-0.0530154
0.102301
-0.0443225
0.0847906
-0.0281864
0.0582029
-0.00982073
0.0276343
-0.00166217
0.0100748
0.00052343
0.00371542
0.000449496
0.00190607
0.0010614
0.00431831
0.937815
0.00291892
0.982095
0.001032
0.937494
-0.00118843
0.892279
-0.00380098
0.848484
-0.0066542
0.808097
-0.0100064
0.768999
-0.0136575
0.732549
-0.0172536
0.697012
-0.0207564
0.66332
-0.0241955
0.63089
-0.0277732
0.599802
-0.0315081
0.569853
-0.0352397
0.540967
-0.0388002
0.513069
-0.0420708
0.486297
-0.0450142
0.460549
-0.0475275
0.435721
-0.0495023
0.412007
-0.0508607
0.389492
-0.0515523
0.368392
-0.0517586
0.348562
-0.0516451
0.329946
-0.0513169
0.31269
-0.0508579
0.296687
-0.0504024
0.281828
-0.0501149
0.268114
-0.0501942
0.255402
-0.0506204
0.243477
-0.0513792
0.232243
-0.0525563
0.221494
-0.0541662
0.211084
-0.0559883
0.200764
-0.057867
0.190447
-0.0597381
0.180227
-0.0612671
0.170008
-0.0624328
0.160192
-0.0632939
0.150867
-0.0637504
0.141921
-0.063757
0.132956
-0.0627485
0.123217
-0.0594608
0.111347
-0.0520832
0.0949231
-0.0370458
0.0697532
-0.0161319
0.037289
-0.00353234
0.0150347
0.000556672
0.00598575
0.00120252
0.00306958
0.000612871
0.00249571
0.00167427
0.0043101
0.933504
0.00352657
0.982879
0.00221238
0.938808
0.000352853
0.894138
-0.00173983
0.850577
-0.00417542
0.810532
-0.0069476
0.771771
-0.0101772
0.735779
-0.0140282
0.700863
-0.0184197
0.667712
-0.02303
0.635501
-0.0276214
0.604393
-0.0320627
0.574294
-0.0362984
0.545203
-0.0402169
0.516988
-0.0436598
0.489739
-0.0465742
0.463464
-0.048916
0.438063
-0.0506597
0.41375
-0.051921
0.390754
-0.0527489
0.36922
-0.0531609
0.348974
-0.0531469
0.329932
-0.0527645
0.312307
-0.0522273
0.29615
-0.0516777
0.281278
-0.0512357
0.267672
-0.0509995
0.255166
-0.0512463
0.243724
-0.05207
0.233067
-0.0533153
0.222739
-0.0549486
0.212717
-0.0570852
0.2029
-0.0595232
0.192885
-0.0617475
0.182452
-0.0638141
0.172075
-0.0655249
0.161903
-0.0668477
0.15219
-0.0678206
0.142894
-0.0676403
0.132776
-0.065314
0.120891
-0.0591582
0.105192
-0.0454185
0.0811834
-0.0232371
0.0475718
-0.00686716
0.020919
-0.000777776
0.00894535
0.000852438
0.00435554
0.000885808
0.00303621
0.000435124
0.0029464
0.00210939
0.00509335
0.928411
0.0045498
0.983422
0.00337251
0.939986
0.00191117
0.8956
9.12925e-05
0.852397
-0.00224183
0.812866
-0.0050354
0.774564
-0.00806262
0.738806
-0.0112656
0.704066
-0.014821
0.671267
-0.0189318
0.639611
-0.0235276
0.608989
-0.028414
0.579181
-0.033409
0.550198
-0.0383766
0.521956
-0.0431198
0.494483
-0.0474567
0.467801
-0.0511938
0.4418
-0.0540916
0.416648
-0.0559546
0.392617
-0.0567818
0.370047
-0.0569065
0.349098
-0.0564911
0.329517
-0.0556493
0.311466
-0.0545552
0.295056
-0.0532866
0.280009
-0.0522079
0.266594
-0.0515035
0.254461
-0.0511767
0.243397
-0.0514401
0.23333
-0.0526462
0.223945
-0.0548567
0.214927
-0.0575661
0.20561
-0.0605986
0.195917
-0.063993
0.185846
-0.0671922
0.175274
-0.0697624
0.164473
-0.0713932
0.153821
-0.0719446
0.143445
-0.0704715
0.131303
-0.0654482
0.115868
-0.0533971
0.0931405
-0.0307915
0.0585778
-0.0114258
0.028206
-0.0036234
0.0131167
-0.00123386
0.00655581
-0.000600146
0.00372182
-0.000294465
0.00273053
-3.75571e-05
0.00268949
0.00207184
0.00461927
0.923792
0.00424487
0.983797
0.00335706
0.940874
0.00233261
0.896624
0.00107438
0.853655
-0.0004442
0.814384
-0.00260424
0.776724
-0.00557472
0.741777
-0.00926051
0.707752
-0.0133687
0.675375
-0.0178876
0.64413
-0.0228524
0.613954
-0.0281544
0.584483
-0.0335882
0.555632
-0.0389052
0.527273
-0.04394
0.499517
-0.0485148
0.472376
-0.0525101
0.445795
-0.0558016
0.41994
-0.0583322
0.395147
-0.0599652
0.37168
-0.0606938
0.349827
-0.0604864
0.329309
-0.059432
0.310411
-0.057806
0.29343
-0.056046
0.278249
-0.0542757
0.264823
-0.052864
0.25305
-0.0521795
0.242713
-0.052224
0.233375
-0.0528977
0.224619
-0.0543427
0.216373
-0.0572448
0.208512
-0.0613234
0.199996
-0.0655362
0.190059
-0.0695371
0.179275
-0.072873
0.167809
-0.0751289
0.156077
-0.0751364
0.143452
-0.0714928
0.127659
-0.0612552
0.10563
-0.0388569
0.0707423
-0.0167684
0.0364893
-0.00678422
0.0182218
-0.00342065
0.0097531
-0.00250493
0.00564009
-0.00212432
0.00334121
-0.00149087
0.00209708
-0.000578814
0.00177743
0.00149302
0.00503287
0.918759
0.00477164
0.984058
0.00341161
0.942234
0.00293158
0.897104
0.00166695
0.854919
0.000373232
0.815678
-0.0010479
0.778146
-0.00278572
0.743515
-0.00530991
0.710276
-0.00872183
0.678787
-0.0129151
0.648324
-0.0178525
0.618891
-0.0234732
0.590104
-0.0296482
0.561807
-0.036151
0.533775
-0.0427077
0.506074
-0.0489901
0.478658
-0.0546909
0.451496
-0.05945
0.424699
-0.0629743
0.398671
-0.0650226
0.373728
-0.0656393
0.350444
-0.0651939
0.328864
-0.0639006
0.309118
-0.0618165
0.291346
-0.0592397
0.275673
-0.0565577
0.262141
-0.0539617
0.250454
-0.0518924
0.240643
-0.0507724
0.232255
-0.0511447
0.224991
-0.0532815
0.218509
-0.0566386
0.211869
-0.0608277
0.204185
-0.06617
0.195401
-0.071829
0.184934
-0.0764252
0.172405
-0.0787974
0.158449
-0.0770575
0.141713
-0.068631
0.119233
-0.0470622
0.0840612
-0.0220873
0.0457673
-0.00901862
0.0234207
-0.00349306
0.0126962
-0.00128665
0.00754669
-0.000725842
0.00507928
-0.000875982
0.00349135
-0.00104303
0.00226413
-0.000626137
0.00136053
0.000866887
0.00356665
0.915192
0.00378385
0.983841
0.00242056
0.943597
0.00206608
0.897459
0.0012384
0.855747
0.000502363
0.816414
-0.000780156
0.779428
-0.00248411
0.745218
-0.00475012
0.712542
-0.00782747
0.681865
-0.0117288
0.652225
-0.0165069
0.623669
-0.0220938
0.595691
-0.0283037
0.568017
-0.0349239
0.540396
-0.0417013
0.512852
-0.0483722
0.485329
-0.0546736
0.457798
-0.0602761
0.430301
-0.0648786
0.403274
-0.0682619
0.377112
-0.0701433
0.352325
-0.0704351
0.329156
-0.0692028
0.307886
-0.0667518
0.288895
-0.0634318
0.272353
-0.0598305
0.25854
-0.0564191
0.247042
-0.0534899
0.237714
-0.0514914
0.230256
-0.0505217
0.224021
-0.0506869
0.218675
-0.0528162
0.213998
-0.0580332
0.209402
-0.064914
0.202282
-0.07242
0.19244
-0.0788059
0.178791
-0.0802254
0.159868
-0.0750261
0.136513
-0.055629
0.0998359
-0.02794
0.0563722
-0.0114364
0.0292638
-0.00328146
0.0152657
0.00108855
0.00832623
0.00364403
0.00499121
0.00454428
0.00417904
0.00377599
0.00425964
0.00206249
0.00397763
0.00051256
0.00291047
0.00137945
0.00290516
0.912287
0.00347959
0.983267
0.00158798
0.945488
0.00155525
0.897491
0.000983423
0.856319
0.00098813
0.816409
0.000944107
0.779472
0.000266436
0.745896
-0.000980301
0.713788
-0.00304544
0.68393
-0.00617156
0.655351
-0.0104807
0.627978
-0.0159749
0.601185
-0.0226341
0.574676
-0.0302241
0.547986
-0.0384182
0.521046
-0.0468944
0.493805
-0.0552044
0.466108
-0.0628124
0.437909
-0.069251
0.409713
-0.0740613
0.381922
-0.0769019
0.355166
-0.0776467
0.329901
-0.076421
0.30666
-0.0735686
0.286042
-0.0693604
0.268144
-0.0642329
0.253413
-0.0588636
0.241673
-0.0537645
0.232615
-0.0495547
0.226047
-0.0472689
0.221736
-0.047622
0.219028
-0.0505345
0.216911
-0.0554841
0.214352
-0.0630507
0.209848
-0.0719572
0.201347
-0.0787268
0.185561
-0.079017
0.160158
-0.0637286
0.121225
-0.0350776
0.0711849
-0.0155853
0.0368798
-0.00721781
0.0208963
-0.00195921
0.0100071
0.00166066
0.00470636
0.00447574
0.00217613
0.00631414
0.00234064
0.00619735
0.00437643
0.00425432
0.00592065
0.00160983
0.00555497
0.00298927
0.000602263
0.911685
0.00143966
0.982429
-0.000786215
0.947714
-0.00134875
0.898054
-0.00177212
0.856742
-0.00192439
0.816562
-0.00187823
0.779426
-0.00207185
0.74609
-0.00269753
0.714414
-0.00408464
0.685317
-0.00637692
0.657643
-0.00987687
0.631478
-0.0145983
0.605906
-0.0205583
0.580636
-0.0276837
0.555111
-0.0356986
0.52906
-0.0442973
0.502404
-0.0531142
0.474925
-0.0617195
0.446515
-0.0694817
0.417475
-0.0758853
0.388325
-0.0804083
0.359689
-0.0827257
0.332218
-0.0826606
0.306595
-0.0804315
0.283813
-0.0763039
0.264017
-0.0707471
0.247856
-0.0644855
0.235411
-0.0582396
0.226369
-0.0526136
0.220421
-0.0480059
0.217128
-0.0450906
0.216112
-0.044606
0.216426
-0.0475415
0.217287
-0.0560854
0.218392
-0.0664874
0.211749
-0.0749888
0.194062
-0.0704435
0.155613
-0.0475047
0.0982861
-0.0276392
0.0513193
-0.0188944
0.0281351
-0.0129844
0.0149862
-0.00847805
0.00550083
-0.00445099
0.000679308
-0.000690078
-0.00158479
0.00285054
-0.00119997
0.00457613
0.00265083
0.00376043
0.00673635
0.00160308
0.00771232
0.00459236
0.00279286
0.908892
0.00215997
0.983062
-0.00113869
0.951013
-0.00263153
0.899547
-0.00264331
0.856754
-0.00230257
0.816221
-0.00130839
0.778432
-0.00023942
0.745021
0.000371368
0.713803
0.000264626
0.685424
-0.000822861
0.658731
-0.00324366
0.633899
-0.0072438
0.609906
-0.0130318
0.586424
-0.0206734
0.562753
-0.0296935
0.538081
-0.0398423
0.512552
-0.0507605
0.485843
-0.0617903
0.457544
-0.0723309
0.428015
-0.0815002
0.397495
-0.0883373
0.366526
-0.0922336
0.336114
-0.0929934
0.307355
-0.0908116
0.281631
-0.0858387
0.259044
-0.0783262
0.240343
-0.0693664
0.226452
-0.0599378
0.21694
-0.0509873
0.21147
-0.0436124
0.209753
-0.0389168
0.211417
-0.0384681
0.215978
-0.0421382
0.220957
-0.0501976
0.226452
-0.0582401
0.219791
-0.0627618
0.198584
-0.0566404