/*--------------------------------*- C++ -*----------------------------------*\
| =========                 |                                                 |
| \\      /  F ield         | OpenFOAM: The Open Source CFD Toolbox           |
|  \\    /   O peration     | Version:  v1912                                 |
|   \\  /    A nd           | Website:  www.openfoam.com                      |
|    \\/     M anipulation  |                                                 |
\*---------------------------------------------------------------------------*/
FoamFile
{
    version     2.0;
    format      ascii;
    class       volVectorField;
    location    "0.45";
    object      U;
}
// * * * * * * * * * * * * * * * * * * * * * * * * * * * * * * * * * * * * * //

dimensions      [0 1 -1 0 0 0 0];


internalField   nonuniform List<vector> 
6600
(
(39.8387 -0.0560559 0)
(40.061 -0.0759097 5.09932e-20)
(40.0941 -0.0412243 3.55902e-18)
(40.1093 0.00146914 0)
(40.1104 0.0442765 4.45523e-18)
(40.1081 0.0810068 1.53567e-19)
(40.1028 0.141303 -1.69818e-19)
(40.1037 0.218416 -1.88841e-19)
(40.1062 0.316496 3.79127e-18)
(40.1023 0.4296 -2.74518e-19)
(40.1025 0.565197 0)
(40.1127 0.723158 -4.66175e-18)
(40.1067 0.903748 0)
(40.081 1.11638 -5.32597e-18)
(40.0482 1.34299 -6.82067e-18)
(40.0211 1.57301 -3.57973e-18)
(39.9728 1.81453 0)
(39.8945 2.06147 0)
(39.8225 2.32024 5.60042e-18)
(39.7612 2.58788 -5.43218e-18)
(39.7153 2.86772 -7.71415e-19)
(39.6753 3.14723 -2.64017e-18)
(39.5689 3.45487 -4.88457e-18)
(39.4639 3.798 1.08046e-18)
(39.3613 4.17853 3.70501e-18)
(39.1902 4.63357 0)
(38.9947 5.11625 8.98562e-18)
(38.8383 5.6004 0)
(38.6915 6.09375 -4.49771e-18)
(38.4954 6.63463 -2.9407e-18)
(38.2156 7.21501 -3.37461e-19)
(37.9932 7.85033 -3.59956e-18)
(37.828 8.5263 -1.41166e-18)
(37.6286 9.2436 2.9466e-18)
(37.3806 10.0164 3.82686e-19)
(37.1517 10.8491 3.49533e-18)
(36.9108 11.802 6.33019e-18)
(36.657 12.8517 6.49659e-18)
(36.4301 13.9674 -4.79239e-18)
(36.2285 15.1658 5.1952e-18)
(36.0239 16.4649 2.81754e-18)
(35.8088 17.856 0)
(35.6455 19.3464 -1.13153e-18)
(35.5575 20.9804 2.6476e-18)
(35.4786 22.6809 0)
(35.4401 24.5415 2.80241e-19)
(35.353 26.4183 4.35498e-19)
(35.65 28.6379 0)
(34.146 29.8755 0)
(25.1801 23.9299 -8.14488e-19)
(39.7121 -0.0599981 2.99723e-18)
(40.1097 -0.118106 -3.27983e-18)
(40.1341 -0.0567746 0)
(40.1528 -0.00815259 -6.25374e-20)
(40.1574 0.0457558 4.48163e-18)
(40.1613 0.108 1.5323e-19)
(40.1729 0.199942 -2.81705e-22)
(40.1885 0.310424 -1.88945e-19)
(40.2054 0.434273 0)
(40.2076 0.582353 -7.21806e-18)
(40.1964 0.752157 -2.59145e-19)
(40.1875 0.932447 4.57484e-18)
(40.1865 1.11983 4.76475e-18)
(40.1843 1.31465 2.92184e-18)
(40.1531 1.53102 -6.06926e-22)
(40.1343 1.76089 4.41762e-19)
(40.1283 2.01735 -3.89526e-18)
(40.1101 2.28092 0)
(40.0626 2.56447 0)
(39.9987 2.86597 5.5239e-18)
(39.9017 3.20259 7.58809e-19)
(39.8198 3.55221 -4.16136e-18)
(39.7339 3.90107 -3.68603e-18)
(39.5992 4.26146 -4.09489e-18)
(39.4795 4.61587 -3.37971e-18)
(39.3793 4.94461 -1.296e-18)
(39.2307 5.35107 -1.52239e-18)
(39.0729 5.82354 -1.59992e-18)
(38.929 6.3396 4.54667e-18)
(38.7954 6.89455 3.00062e-19)
(38.6903 7.48771 -5.58793e-18)
(38.5378 8.15354 4.97583e-18)
(38.3673 8.88165 3.75235e-18)
(38.1957 9.64032 -4.4421e-18)
(38.0131 10.4756 4.18968e-19)
(37.8447 11.3646 -3.57489e-18)
(37.6919 12.3045 3.23423e-18)
(37.5396 13.3325 -2.29926e-18)
(37.4082 14.4373 -1.85818e-18)
(37.3114 15.6284 -2.06437e-18)
(37.2322 16.8936 0)
(37.1842 18.2605 0)
(37.179 19.728 -6.79563e-19)
(37.2028 21.2888 6.27598e-19)
(37.2572 22.9119 4.73075e-19)
(37.4115 24.6829 -2.89367e-19)
(37.5579 26.485 1.43568e-18)
(38.0153 28.5568 0)
(36.5835 29.3411 -3.1383e-18)
(26.3841 22.9755 1.1084e-18)
(39.5914 -0.0471926 -3.63817e-20)
(40.1748 -0.132157 3.34299e-18)
(40.1698 -0.0361832 3.59899e-18)
(40.1838 0.0187745 -2.68637e-22)
(40.1828 0.0856282 -2.51581e-19)
(40.184 0.165724 1.53223e-19)
(40.199 0.274179 0)
(40.2197 0.396903 0)
(40.2418 0.540651 0)
(40.2641 0.70234 3.96216e-18)
(40.2847 0.881827 -2.5742e-19)
(40.2892 1.08239 -4.60539e-18)
(40.2877 1.30503 -2.28207e-18)
(40.2977 1.53746 5.29595e-18)
(40.2893 1.78094 3.11047e-18)
(40.2567 2.01997 -4.36505e-19)
(40.2124 2.26759 8.25403e-18)
(40.1651 2.52929 -4.26504e-18)
(40.1295 2.81168 -4.73558e-18)
(40.1003 3.08657 0)
(40.0885 3.36199 -2.91378e-18)
(40.0518 3.67607 3.35474e-18)
(40.0022 4.03308 3.73029e-18)
(39.9468 4.41326 4.14661e-18)
(39.8529 4.8832 3.48643e-18)
(39.7333 5.36308 -5.44023e-19)
(39.6175 5.83988 -6.88361e-19)
(39.4976 6.32508 -2.15757e-18)
(39.3963 6.83526 -8.38112e-19)
(39.2624 7.41933 2.91516e-18)
(39.0702 8.02372 1.00901e-18)
(38.9572 8.66147 0)
(38.892 9.36782 -4.71094e-18)
(38.8052 10.1251 1.24397e-18)
(38.6948 10.9217 2.70159e-18)
(38.6108 11.7851 4.03997e-18)
(38.5389 12.7311 -1.87943e-18)
(38.4666 13.7507 -1.58598e-18)
(38.4363 14.8365 4.94291e-19)
(38.4568 16.0001 0)
(38.4988 17.2449 -9.37794e-19)
(38.5522 18.5438 0)
(38.6898 19.9197 0)
(38.9446 21.4335 -6.32043e-20)
(39.2423 22.9847 2.43342e-20)
(39.6022 24.6522 -1.37884e-18)
(39.9667 26.3784 -1.22761e-18)
(40.531 28.1988 0)
(38.9544 28.5833 -2.32166e-18)
(27.2637 21.6792 2.39605e-18)
(39.484 -0.0413898 -2.98164e-18)
(40.245 -0.132 2.53223e-20)
(40.2489 -0.0265671 -3.697e-18)
(40.2581 0.0372852 -3.88524e-18)
(40.2621 0.125395 -4.34808e-18)
(40.2767 0.238417 -2.34098e-18)
(40.3063 0.370913 -1.68768e-19)
(40.3292 0.521501 0)
(40.3484 0.681518 3.2948e-18)
(40.3501 0.862668 3.88517e-18)
(40.356 1.05462 -2.55615e-19)
(40.3704 1.25078 -2.83281e-19)
(40.3826 1.45915 -2.22323e-18)
(40.3914 1.68167 -3.99542e-19)
(40.401 1.92104 3.27087e-19)
(40.4119 2.18297 -4.30076e-19)
(40.4251 2.44494 3.8378e-19)
(40.4079 2.71373 4.83254e-18)
(40.3809 3.01183 6.50707e-18)
(40.3158 3.36191 0)
(40.2449 3.70809 1.10001e-19)
(40.2005 4.05483 0)
(40.1443 4.41913 0)
(40.0702 4.78467 -9.70128e-19)
(40.0167 5.12835 3.16339e-18)
(39.9773 5.51707 3.02679e-18)
(39.8932 5.98453 -6.53076e-19)
(39.7877 6.4946 2.95565e-18)
(39.7091 7.02464 0)
(39.6807 7.58663 0)
(39.658 8.20937 1.70217e-18)
(39.5735 8.89778 0)
(39.5063 9.62676 1.23028e-18)
(39.4787 10.3964 2.18888e-18)
(39.4347 11.2497 -3.7051e-18)
(39.4081 12.141 -3.73599e-18)
(39.4393 13.0682 3.29818e-18)
(39.478 14.0594 -1.20869e-18)
(39.5488 15.1224 3.91475e-19)
(39.6754 16.2565 4.61543e-19)
(39.8543 17.4481 1.16397e-18)
(40.0868 18.7114 0)
(40.3782 20.0385 0)
(40.7097 21.4238 -2.79782e-19)
(41.1152 22.8488 -1.50185e-18)
(41.6417 24.3805 -8.55693e-19)
(42.2028 26.0105 -3.18607e-18)
(42.7434 27.565 3.51988e-18)
(40.8766 27.4871 5.4166e-18)
(27.7051 20.072 0)
(39.3676 -0.0382989 -1.13714e-20)
(40.3171 -0.124041 3.2014e-18)
(40.2973 0.0324634 3.48466e-18)
(40.3032 0.0956115 4.02593e-18)
(40.3037 0.196834 0)
(40.3199 0.323896 3.32067e-20)
(40.3524 0.470318 0)
(40.3897 0.622749 -1.85091e-19)
(40.4198 0.79687 -6.36747e-18)
(40.4512 0.980963 -3.90249e-18)
(40.4694 1.18901 2.53352e-19)
(40.4804 1.41112 2.80192e-19)
(40.5015 1.63985 -3.11824e-19)
(40.5228 1.88006 -2.78856e-18)
(40.5275 2.11914 -6.49887e-18)
(40.5115 2.37837 4.2509e-19)
(40.4879 2.64964 -7.50207e-18)
(40.4783 2.93026 5.17687e-19)
(40.4787 3.19568 -2.34185e-18)
(40.4893 3.4606 -1.26811e-18)
(40.4913 3.77574 3.55835e-18)
(40.4832 4.12037 0)
(40.4731 4.48422 0)
(40.4583 4.9239 -1.80418e-18)
(40.3918 5.41911 -2.10834e-18)
(40.34 5.90336 2.68544e-18)
(40.3143 6.38 -6.1266e-19)
(40.2678 6.89599 0)
(40.2339 7.44656 6.93015e-19)
(40.1621 8.04148 -7.71946e-19)
(40.1019 8.64509 -1.73003e-18)
(40.0978 9.29116 -2.36337e-18)
(40.1306 10.0057 9.13447e-19)
(40.1754 10.7507 -8.57435e-19)
(40.234 11.5309 9.54134e-19)
(40.3006 12.3951 0)
(40.3993 13.3219 -1.00076e-18)
(40.5281 14.2925 -1.01925e-18)
(40.6991 15.3066 6.29618e-19)
(40.9447 16.3787 5.4851e-19)
(41.2359 17.5177 -2.06746e-19)
(41.5439 18.6894 0)
(41.9536 19.9027 0)
(42.5069 21.2136 -1.50436e-18)
(43.1193 22.5208 3.21289e-18)
(43.7843 23.9066 7.53284e-19)
(44.4625 25.4337 2.12356e-18)
(44.9249 26.6593 -4.71083e-18)
(42.5439 26.1698 5.32237e-19)
(27.6974 18.1859 -8.01341e-18)
(39.2606 -0.0205897 2.88609e-18)
(40.4027 -0.0944249 -5.89454e-20)
(40.3991 0.0804256 -3.55178e-18)
(40.4236 0.154719 1.93077e-18)
(40.432 0.282967 0)
(40.4591 0.433165 2.4802e-18)
(40.4959 0.59733 -8.28246e-20)
(40.5209 0.773493 -2.90458e-18)
(40.5447 0.959571 3.27713e-18)
(40.5683 1.15298 0)
(40.5989 1.34955 2.49079e-19)
(40.6165 1.56174 1.90897e-18)
(40.6341 1.78161 -2.72516e-18)
(40.6621 2.01381 3.40288e-19)
(40.6983 2.25771 3.41716e-18)
(40.7368 2.50931 -4.16776e-19)
(40.7562 2.77823 2.38245e-18)
(40.7608 3.07577 -5.08823e-19)
(40.7462 3.42395 5.54002e-19)
(40.7099 3.77291 1.77182e-18)
(40.6811 4.11271 2.28102e-18)
(40.6694 4.47023 6.89623e-21)
(40.6505 4.83069 8.06562e-19)
(40.6374 5.1539 3.06779e-18)
(40.6539 5.5108 0)
(40.6516 5.95304 -2.1564e-18)
(40.6375 6.43759 5.4348e-19)
(40.6122 6.95827 -2.7026e-20)
(40.6152 7.49644 -9.16396e-20)
(40.7066 8.09381 6.82881e-19)
(40.7678 8.73642 -1.23869e-18)
(40.7985 9.41612 1.568e-18)
(40.8586 10.1272 0)
(40.9511 10.8896 0)
(41.0494 11.7105 0)
(41.1875 12.5526 0)
(41.3938 13.4339 -3.65774e-19)
(41.6209 14.3642 6.04664e-19)
(41.8962 15.3476 0)
(42.2414 16.3704 5.86087e-20)
(42.6459 17.4165 -3.18055e-19)
(43.1163 18.5122 -2.12803e-18)
(43.6562 19.6486 1.14928e-18)
(44.2277 20.7981 0)
(44.8861 21.9554 1.50473e-18)
(45.6557 23.1914 -5.80492e-18)
(46.4319 24.5679 4.01558e-18)
(46.6948 25.51 3.38842e-18)
(43.6095 24.5129 1.24604e-17)
(27.0844 16.002 -9.43991e-18)
(39.1672 -0.0194691 -2.88233e-18)
(40.488 -0.0687365 -6.27192e-18)
(40.4852 0.154409 5.42285e-20)
(40.5248 0.237152 -1.93753e-18)
(40.5299 0.394674 2.04202e-18)
(40.565 0.549812 -7.345e-20)
(40.6125 0.713756 2.66494e-18)
(40.6621 0.889765 2.91621e-18)
(40.7058 1.08457 3.26502e-18)
(40.7364 1.29184 -1.11e-19)
(40.7714 1.50709 -1.93637e-18)
(40.8038 1.72965 -5.71513e-20)
(40.8315 1.96392 2.43258e-18)
(40.8546 2.20024 0)
(40.8656 2.45097 0)
(40.8677 2.70889 2.00589e-19)
(40.8835 2.97715 3.3268e-18)
(40.9035 3.23266 0)
(40.9471 3.49356 2.65212e-19)
(40.9897 3.79182 -2.70278e-18)
(41.0148 4.11374 -2.32415e-18)
(41.045 4.46649 9.88043e-19)
(41.0873 4.88668 0)
(41.1135 5.36365 -1.70659e-18)
(41.1026 5.84463 -4.29211e-19)
(41.1276 6.30472 4.78729e-19)
(41.1687 6.78013 0)
(41.2023 7.29754 0)
(41.2336 7.85595 -7.20157e-19)
(41.2364 8.42416 -4.05856e-19)
(41.3138 9.01561 1.77817e-18)
(41.4319 9.66112 -5.81729e-19)
(41.5759 10.3558 -4.55142e-19)
(41.7614 11.0602 8.88568e-19)
(41.974 11.7962 -7.56562e-19)
(42.1817 12.6053 1.24274e-19)
(42.4412 13.4556 2.16721e-19)
(42.7516 14.3384 2.8628e-20)
(43.1056 15.2398 -9.16666e-19)
(43.5467 16.184 6.97519e-20)
(44.032 17.1666 -4.02637e-19)
(44.5334 18.1513 1.11875e-18)
(45.137 19.1436 2.13512e-18)
(45.8929 20.2026 -2.37185e-18)
(46.6991 21.2286 1.56666e-18)
(47.5257 22.3027 0)
(48.2813 23.5434 2.67942e-18)
(48.2749 24.0959 4.41752e-18)
(44.2223 22.6621 -8.92512e-18)
(25.8209 13.599 -2.88367e-18)
(39.0883 -0.00569735 2.79337e-18)
(40.621 -0.0273914 3.09467e-18)
(40.6376 0.205645 2.68441e-20)
(40.6881 0.292072 -1.8756e-18)
(40.7074 0.494376 -4.19198e-18)
(40.7465 0.66 2.36947e-18)
(40.7849 0.841732 -5.21322e-18)
(40.8197 1.03086 1.40494e-18)
(40.8719 1.22013 -3.1774e-18)
(40.9174 1.41889 -1.82379e-18)
(40.9616 1.63088 4.07824e-18)
(40.9972 1.84924 -2.41486e-18)
(41.0344 2.0794 -2.29857e-18)
(41.0824 2.31458 1.87739e-21)
(41.1427 2.55827 -1.21098e-18)
(41.2018 2.81489 1.52307e-18)
(41.239 3.09819 -1.74872e-18)
(41.267 3.42368 0)
(41.2755 3.76366 0)
(41.2813 4.10957 0)
(41.299 4.45259 -2.95045e-19)
(41.3137 4.78801 -1.02383e-18)
(41.3324 5.10057 -9.81632e-19)
(41.404 5.43161 -3.80197e-19)
(41.4698 5.81325 0)
(41.5108 6.26536 0)
(41.5724 6.73832 7.82628e-19)
(41.6332 7.24424 -4.19045e-19)
(41.7477 7.78012 -1.09781e-19)
(41.9237 8.3701 1.3267e-19)
(42.0832 9.00164 7.87763e-20)
(42.2342 9.65206 -1.28828e-19)
(42.4142 10.3274 1.16062e-19)
(42.6264 11.0533 -1.84798e-19)
(42.8667 11.8104 2.00947e-19)
(43.1542 12.5704 1.66186e-19)
(43.4984 13.3533 2.08795e-19)
(43.8753 14.1624 3.63891e-19)
(44.3107 15.0101 2.87757e-19)
(44.8154 15.8782 8.37753e-19)
(45.3744 16.7441 -3.93331e-19)
(46.0035 17.6305 2.0429e-18)
(46.6998 18.5356 -2.27235e-18)
(47.4023 19.4157 0)
(48.1854 20.2891 0)
(49.0883 21.2824 0)
(49.7521 22.1905 0)
(49.3582 22.5274 0)
(44.0416 20.5303 -5.44483e-18)
(23.753 11.0035 8.90337e-18)
(39.0624 0.019056 -2.7658e-18)
(40.7685 -0.00406609 0)
(40.7892 0.283903 0)
(40.8351 0.364084 1.9093e-18)
(40.8527 0.578612 2.05022e-18)
(40.904 0.737409 -2.37471e-18)
(40.962 0.920149 2.62747e-18)
(41.015 1.11325 -1.40941e-18)
(41.0685 1.31565 1.52111e-18)
(41.1207 1.5251 1.82752e-18)
(41.1825 1.73956 -1.90209e-18)
(41.2347 1.96959 1.90257e-18)
(41.277 2.20562 3.42595e-18)
(41.3109 2.45407 0)
(41.3393 2.71236 1.39611e-18)
(41.3774 2.97019 -1.71514e-18)
(41.4279 3.21779 4.74964e-21)
(41.489 3.46169 -1.71275e-18)
(41.573 3.72212 2.09793e-18)
(41.6361 4.025 0)
(41.7126 4.36458 0)
(41.8152 4.77318 1.12844e-18)
(41.8936 5.20142 1.48014e-19)
(41.9686 5.66607 -1.23159e-18)
(42.044 6.11734 -3.2934e-19)
(42.1384 6.55848 1.00535e-18)
(42.2524 7.02816 -1.41936e-18)
(42.3687 7.52174 9.2538e-19)
(42.4399 8.03756 -5.12169e-19)
(42.5542 8.56142 2.99415e-19)
(42.74 9.11687 -1.46568e-19)
(42.9602 9.72179 4.89081e-19)
(43.2036 10.3642 1.15398e-19)
(43.5038 11.0003 5.60812e-20)
(43.8428 11.6632 0)
(44.1792 12.3788 -3.38838e-19)
(44.5666 13.1194 -2.90869e-19)
(45.0056 13.8814 2.25852e-19)
(45.485 14.6337 1.31147e-18)
(46.0459 15.4063 -1.1914e-18)
(46.6445 16.197 -3.75726e-19)
(47.2536 16.9698 -2.52366e-18)
(47.9516 17.7257 6.06442e-18)
(48.803 18.5201 5.30512e-19)
(49.6985 19.2759 6.30088e-19)
(50.6074 20.1479 -2.53668e-18)
(50.9687 20.7224 0)
(50.0077 20.7763 4.98095e-18)
(43.1676 18.2555 -2.58208e-18)
(20.9071 8.36947 0)
(39.0715 0.031141 1.03296e-20)
(40.941 0.0207642 -6.98727e-23)
(40.9829 0.328314 -1.65748e-18)
(41.0388 0.402648 0)
(41.056 0.642114 -3.15663e-20)
(41.1 0.806208 -1.07244e-18)
(41.1544 0.995707 0)
(41.2056 1.19051 1.34904e-18)
(41.273 1.38459 -1.61921e-18)
(41.3334 1.58857 1.04283e-19)
(41.3975 1.79941 1.7987e-18)
(41.4596 2.02146 -9.28387e-19)
(41.5257 2.24991 -1.25874e-18)
(41.6042 2.48532 0)
(41.6913 2.73607 0)
(41.762 3.01116 0)
(41.8334 3.32084 -1.31445e-18)
(41.8871 3.65319 1.71985e-18)
(41.9457 3.98143 -2.95724e-18)
(42.0014 4.30388 2.33694e-19)
(42.0356 4.60313 -5.08226e-19)
(42.1033 4.90472 -8.59085e-19)
(42.1947 5.22856 2.23372e-18)
(42.3225 5.55102 1.76798e-18)
(42.44 5.94146 0)
(42.5507 6.37497 -7.76498e-19)
(42.6854 6.82968 1.25351e-18)
(42.8534 7.30924 -7.19439e-19)
(43.0825 7.83296 2.14734e-19)
(43.3184 8.39163 -1.00527e-19)
(43.5636 8.97214 1.43669e-20)
(43.8229 9.55566 1.0887e-19)
(44.1063 10.1586 -1.7666e-19)
(44.4165 10.8154 6.40494e-19)
(44.7592 11.4837 3.65403e-19)
(45.1477 12.1406 -9.46388e-19)
(45.5857 12.7971 1.3798e-18)
(46.0579 13.456 -1.03291e-18)
(46.5844 14.1476 4.03074e-20)
(47.1734 14.8453 0)
(47.8027 15.5151 1.97565e-18)
(48.5044 16.1871 1.48727e-18)
(49.2661 16.8589 2.23277e-19)
(50.0056 17.4764 -4.44914e-18)
(50.811 18.0924 -2.53892e-19)
(51.6614 18.8383 -3.15469e-18)
(51.8474 19.134 0)
(50.0466 18.8892 5.35733e-18)
(41.2681 15.7491 -8.95682e-18)
(17.1033 5.66928 0)
(39.1035 0.0423605 0)
(41.1346 0.0272323 0)
(41.1757 0.364864 8.66093e-19)
(41.2345 0.436511 -5.62089e-20)
(41.2594 0.681403 1.01439e-18)
(41.3252 0.83858 1.10978e-18)
(41.3857 1.03199 0)
(41.44 1.2299 -1.35214e-18)
(41.5077 1.43208 1.45057e-18)
(41.5782 1.63964 0)
(41.6547 1.85566 -2.67734e-18)
(41.7229 2.07783 -3.37917e-20)
(41.7783 2.31571 -1.31346e-19)
(41.8277 2.563 1.46442e-19)
(41.891 2.81004 0)
(41.9683 3.05354 0)
(42.0539 3.28583 8.89078e-19)
(42.1601 3.5286 6.56889e-19)
(42.2696 3.80447 6.73015e-20)
(42.4002 4.12422 1.06582e-19)
(42.5396 4.50051 -2.2985e-19)
(42.6705 4.8733 1.23681e-19)
(42.8036 5.29443 -1.0464e-18)
(42.9393 5.72314 -4.17753e-19)
(43.0996 6.13257 2.88562e-19)
(43.2646 6.55007 3.72775e-19)
(43.4468 6.9897 -3.89825e-19)
(43.6148 7.44572 -1.98297e-19)
(43.7712 7.91241 0)
(43.9827 8.38464 0)
(44.2538 8.88821 0)
(44.5485 9.43838 -1.26075e-19)
(44.8633 10.0067 -2.48144e-19)
(45.2511 10.5471 -2.28392e-19)
(45.6831 11.1132 5.47694e-19)
(46.1077 11.714 7.46769e-19)
(46.5661 12.3333 -2.84961e-19)
(47.0726 12.9608 1.19285e-18)
(47.6168 13.5579 -7.19847e-19)
(48.2239 14.1517 -1.06376e-18)
(48.8602 14.7492 -1.34968e-18)
(49.4946 15.311 1.50495e-18)
(50.2047 15.8505 0)
(51.0629 16.4047 2.60363e-18)
(52.0088 16.9802 -1.48802e-18)
(52.5944 17.4075 1.83797e-18)
(52.2768 17.4949 0)
(49.3236 16.8219 -2.77842e-18)
(38.3309 13.0513 1.6374e-18)
(12.4402 3.04674 0)
(39.1436 0.0514766 6.34094e-19)
(41.36 0.0336508 0)
(41.4029 0.384086 1.59749e-18)
(41.4723 0.439779 -8.71131e-19)
(41.4841 0.704979 -9.84712e-19)
(41.538 0.863383 3.3398e-20)
(41.6082 1.0541 -3.71696e-20)
(41.6762 1.24512 0)
(41.7494 1.44172 -1.40895e-18)
(41.8222 1.64311 7.25666e-19)
(41.9025 1.85426 8.75582e-19)
(41.9926 2.06614 -1.0162e-18)
(42.0866 2.28406 5.04229e-19)
(42.191 2.51505 1.38943e-19)
(42.2884 2.76775 -7.62724e-20)
(42.3896 3.05535 0)
(42.4762 3.37083 7.96641e-19)
(42.562 3.68688 -8.52681e-19)
(42.6607 3.97528 1.57586e-19)
(42.7349 4.24751 -7.61782e-21)
(42.8327 4.53116 -1.07409e-19)
(42.9568 4.82179 0)
(43.1038 5.10886 -9.53526e-20)
(43.2767 5.4311 -2.44253e-19)
(43.4542 5.80783 -4.16818e-19)
(43.6349 6.205 -3.75247e-19)
(43.8502 6.62363 0)
(44.1288 7.06909 1.06545e-19)
(44.4202 7.55036 -1.08297e-19)
(44.7186 8.05463 8.0924e-20)
(45.0457 8.57188 -3.82744e-19)
(45.3934 9.0702 -2.5914e-19)
(45.7521 9.58906 5.5922e-19)
(46.1243 10.1646 -2.05295e-19)
(46.5192 10.7348 -5.52446e-19)
(46.9582 11.2868 -2.88449e-19)
(47.4479 11.8204 -4.90657e-19)
(47.966 12.3379 0)
(48.5194 12.8782 -9.69166e-19)
(49.1245 13.4149 2.14808e-18)
(49.751 13.9007 1.37444e-18)
(50.4564 14.3877 -1.6908e-18)
(51.2112 14.8502 2.30314e-18)
(51.9339 15.2661 -1.16963e-18)
(52.7059 15.7105 3.08622e-18)
(52.9025 15.8664 7.84824e-20)
(52.2674 15.7554 0)
(47.7942 14.5407 5.76227e-18)
(34.3528 10.1132 -4.9347e-18)
(8.06725 0.882911 -1.86358e-18)
(39.1889 0.0590936 -6.41184e-19)
(41.5869 0.0226657 6.92074e-19)
(41.6332 0.381014 -7.84609e-19)
(41.6959 0.429561 8.58592e-19)
(41.7218 0.694371 4.72e-19)
(41.7886 0.838711 3.28378e-20)
(41.8481 1.04046 -1.81824e-20)
(41.9203 1.23328 0)
(42.0099 1.42505 6.46693e-19)
(42.0987 1.62957 -1.10557e-18)
(42.1852 1.84105 0)
(42.2667 2.06716 5.60751e-20)
(42.3372 2.29736 -1.4178e-19)
(42.4093 2.53067 -4.54874e-19)
(42.5063 2.75353 6.30478e-19)
(42.6079 2.96001 -3.51743e-21)
(42.7287 3.17143 -8.3336e-20)
(42.8553 3.42195 0)
(43.0146 3.71686 4.00386e-19)
(43.1986 4.03445 -3.89744e-19)
(43.3608 4.37267 4.82402e-20)
(43.5384 4.73181 0)
(43.7131 5.11838 0)
(43.9203 5.48258 2.17579e-19)
(44.1402 5.84721 -2.57544e-20)
(44.3623 6.2232 1.03914e-19)
(44.5819 6.6171 -1.67429e-20)
(44.7996 7.01984 7.99366e-23)
(45.0456 7.4269 3.02388e-20)
(45.3302 7.84751 5.09499e-20)
(45.6679 8.30093 2.12202e-19)
(46.0158 8.79877 -3.99421e-19)
(46.3832 9.28639 2.99649e-19)
(46.8271 9.73406 -3.22772e-19)
(47.3164 10.2055 -4.22319e-19)
(47.7866 10.6877 -4.58051e-19)
(48.2594 11.186 0)
(48.7786 11.6908 1.30538e-18)
(49.338 12.16 -4.88026e-19)
(49.9337 12.6001 -1.21748e-18)
(50.5539 13.0394 1.50101e-18)
(51.1494 13.4109 -7.22721e-20)
(51.809 13.7778 -1.23371e-18)
(52.6782 14.2007 -1.64828e-20)
(53.2255 14.4176 -1.56476e-18)
(53.2873 14.4433 -3.99485e-18)
(51.4135 13.9455 2.39336e-18)
(44.9688 12.0262 0)
(29.3393 6.97233 -3.41762e-18)
(5.27244 -0.105634 6.53697e-18)
(39.2513 0.0685378 -1.21443e-21)
(41.8075 0.0228155 -6.96604e-19)
(41.8572 0.372767 1.83621e-19)
(41.9245 0.405209 6.62778e-21)
(41.942 0.674378 -4.72214e-19)
(42.0117 0.79722 0)
(42.0783 0.990361 0)
(42.1597 1.1722 1.92867e-20)
(42.2506 1.35978 -1.04934e-18)
(42.3466 1.55763 3.77781e-19)
(42.4543 1.75842 -2.50455e-20)
(42.5718 1.95877 5.50562e-20)
(42.6956 2.17392 -3.10309e-19)
(42.816 2.40871 3.03866e-19)
(42.9369 2.67637 -8.30154e-19)
(43.0511 2.9689 1.42277e-19)
(43.1507 3.25291 -1.49127e-19)
(43.2492 3.50923 -3.81293e-20)
(43.3451 3.75494 4.23029e-19)
(43.4769 3.99636 2.6519e-19)
(43.6133 4.24932 5.79249e-21)
(43.7766 4.49835 4.17647e-20)
(43.9631 4.75565 0)
(44.1748 5.07057 1.23337e-19)
(44.4069 5.39822 6.33051e-21)
(44.6587 5.74712 -5.0824e-20)
(44.9642 6.11594 2.18046e-22)
(45.2954 6.5129 4.06075e-20)
(45.6342 6.93206 0)
(45.9903 7.37874 5.56438e-20)
(46.3809 7.82036 3.40294e-19)
(46.7848 8.23316 3.51679e-19)
(47.1917 8.68065 -1.9378e-19)
(47.6019 9.17927 5.15245e-19)
(48.0142 9.66173 -4.57953e-19)
(48.4591 10.1346 -3.09397e-19)
(48.9648 10.5743 0)
(49.4891 10.9749 -8.72765e-19)
(50.0159 11.3857 -5.98754e-19)
(50.5815 11.7914 6.68835e-19)
(51.1423 12.1225 -8.23809e-19)
(51.7964 12.4848 1.0046e-18)
(52.5132 12.807 0)
(53.1774 13.0807 7.09401e-19)
(53.3106 13.1346 0)
(52.6367 12.9112 1.09838e-18)
(49.7911 12.0418 -2.50828e-18)
(41.0733 9.4808 1.43081e-18)
(22.8026 3.93732 0)
(3.06435 -0.361456 4.52315e-19)
(39.2907 0.0475847 -1.49032e-22)
(42.0117 -0.0207434 -1.64567e-22)
(42.0795 0.321021 -1.89261e-19)
(42.1464 0.338769 -8.06847e-22)
(42.1746 0.60548 -6.19723e-21)
(42.2491 0.711204 -9.79571e-22)
(42.3117 0.916206 1.09037e-21)
(42.4094 1.08575 -2.35981e-21)
(42.5131 1.26839 3.4001e-19)
(42.6143 1.46538 5.63855e-21)
(42.7132 1.67841 3.05021e-21)
(42.8077 1.89536 -6.69477e-21)
(42.9018 2.11497 -2.31224e-19)
(43.0091 2.32196 2.52227e-19)
(43.1241 2.5104 2.81353e-19)
(43.2667 2.70455 -1.42724e-19)
(43.4134 2.93307 1.44613e-19)
(43.5756 3.19152 4.56764e-21)
(43.7478 3.46233 4.60181e-21)
(43.9455 3.74376 0)
(44.1444 4.04327 4.28199e-21)
(44.3421 4.3643 1.79184e-21)
(44.5565 4.68232 -2.00263e-21)
(44.7994 4.97705 0)
(45.0508 5.28651 0)
(45.2989 5.60943 -2.9937e-21)
(45.5581 5.94045 0)
(45.8393 6.28369 -4.06621e-20)
(46.1508 6.63049 0)
(46.4965 6.99307 4.26199e-21)
(46.8724 7.40128 -1.70114e-19)
(47.2559 7.84937 1.35894e-20)
(47.6571 8.26675 -3.12471e-19)
(48.1306 8.65248 3.0549e-20)
(48.6419 9.05246 2.10007e-19)
(49.1293 9.4378 3.48741e-19)
(49.5863 9.83927 -1.32924e-20)
(50.0766 10.2608 0)
(50.6097 10.643 -9.9612e-21)
(51.1459 10.9688 1.20672e-20)
(51.7161 11.3119 0)
(52.2471 11.5555 -1.72751e-20)
(52.9295 11.8655 -7.99707e-20)
(53.2067 11.9796 -6.36458e-19)
(53.1781 11.9355 -1.44764e-20)
(51.9507 11.6273 0)
(46.7787 10.3799 0)
(34.7842 7.23774 2.04467e-19)
(13.4782 1.36125 -2.02362e-19)
(1.47361 -0.205948 4.54112e-19)
(39.2913 0.0295486 -2.94838e-19)
(42.1905 -0.0436728 -3.28372e-19)
(42.272 0.267804 -1.79917e-19)
(42.3397 0.270444 -2.05208e-19)
(42.3721 0.517372 -2.0924e-19)
(42.4607 0.599405 2.38256e-19)
(42.5269 0.796464 0)
(42.632 0.951729 0)
(42.7438 1.12995 -1.62684e-19)
(42.863 1.31678 -5.63786e-21)
(42.9931 1.50029 1.81004e-19)
(43.1345 1.69537 1.33342e-20)
(43.276 1.91407 2.10838e-19)
(43.4083 2.16888 -2.24706e-19)
(43.5364 2.44029 -2.62701e-19)
(43.6636 2.69954 0)
(43.7772 2.9341 0)
(43.8855 3.15992 -4.57046e-21)
(43.9977 3.3812 -4.60107e-21)
(44.1433 3.58636 1.35939e-19)
(44.3146 3.79136 -4.28391e-21)
(44.4968 3.99451 0)
(44.7098 4.23016 0)
(44.9574 4.49071 3.4036e-21)
(45.2402 4.75978 -1.20324e-20)
(45.5533 5.04842 4.64519e-21)
(45.9036 5.35585 0)
(46.2693 5.69336 -7.37745e-20)
(46.6546 6.05572 0)
(47.0636 6.44202 -4.26088e-21)
(47.5046 6.81252 0)
(47.9434 7.15804 0)
(48.3837 7.55485 9.57708e-20)
(48.8136 7.98786 1.2528e-19)
(49.2225 8.40841 0)
(49.6357 8.82953 0)
(50.1189 9.21556 1.32859e-20)
(50.6277 9.54324 0)
(51.1007 9.87486 9.95546e-21)
(51.6005 10.2096 -4.19198e-19)
(52.0612 10.4442 4.92917e-19)
(52.685 10.7845 5.2212e-20)
(53.1376 10.9881 3.70799e-20)
(53.2444 11.0184 -7.31945e-19)
(52.6147 10.9089 -4.70515e-19)
(49.5034 10.1973 2.71832e-18)
(42.1988 8.38002 -1.23374e-18)
(27.2524 4.64631 -1.45762e-18)
(7.91106 0.187976 1.19665e-18)
(0.782497 -0.00294354 0)
(39.2657 0.00403089 2.90443e-19)
(42.3386 -0.095438 -3.14438e-19)
(42.462 0.184944 1.77018e-19)
(42.5158 0.161178 -1.96262e-19)
(42.5558 0.402873 2.23208e-19)
(42.6517 0.464305 -2.45904e-19)
(42.7322 0.656075 -1.6675e-20)
(42.8553 0.794688 1.8566e-20)
(42.9778 0.971465 1.42605e-19)
(43.0914 1.16928 2.22524e-20)
(43.2048 1.37108 -1.92827e-19)
(43.3161 1.575 -4.13317e-19)
(43.4332 1.7642 2.20278e-19)
(43.564 1.93762 2.10985e-19)
(43.7062 2.12589 7.90908e-19)
(43.8684 2.33605 -3.17882e-20)
(44.034 2.57726 3.54776e-20)
(44.2035 2.81404 -2.77708e-19)
(44.38 3.06477 -3.19919e-20)
(44.5731 3.3184 -1.00031e-19)
(44.785 3.57314 0)
(44.9895 3.83288 0)
(45.216 4.05831 0)
(45.4611 4.29344 0)
(45.7307 4.52648 4.66871e-21)
(46.0044 4.77708 -1.063e-19)
(46.3123 5.03193 0)
(46.6495 5.30186 2.43643e-19)
(47.0247 5.58009 0)
(47.4179 5.89674 0)
(47.8237 6.26566 -4.83052e-19)
(48.2406 6.67446 3.28971e-19)
(48.6674 7.04871 -7.88774e-19)
(49.1595 7.41315 2.3211e-19)
(49.6756 7.78357 0)
(50.1768 8.12959 0)
(50.6199 8.47039 4.95207e-19)
(51.0507 8.84874 -1.73839e-18)
(51.5222 9.18797 0)
(51.9676 9.45228 -1.30625e-18)
(52.4943 9.78962 1.94572e-18)
(53.0166 10.0464 -2.18861e-18)
(53.1708 10.1143 1.27364e-18)
(52.8621 10.1162 -1.65944e-18)
(51.1874 9.82168 4.26158e-18)
(46.7303 8.87368 -3.7913e-18)
(35.5846 6.28544 2.52439e-18)
(16.4169 1.63686 -5.6461e-18)
(4.29751 -0.223712 6.72964e-18)
(0.32085 -0.0594774 -4.33522e-18)
(39.1998 -0.0108002 5.65776e-19)
(42.4393 -0.125707 7.88899e-21)
(42.5769 0.103767 0)
(42.6437 0.0649368 3.97822e-19)
(42.6981 0.26731 8.98274e-19)
(42.8018 0.306538 -3.02877e-20)
(42.896 0.488295 0)
(43.0381 0.608832 0)
(43.1803 0.77275 3.95897e-20)
(43.3323 0.934171 -4.4102e-20)
(43.4918 1.11058 7.60201e-19)
(43.6496 1.32203 -4.11621e-19)
(43.7985 1.56475 -4.44165e-19)
(43.9381 1.81983 4.75841e-19)
(44.0604 2.0628 -5.03349e-19)
(44.1836 2.28449 -6.33125e-20)
(44.2943 2.50119 6.20805e-19)
(44.4061 2.70612 8.36966e-19)
(44.5216 2.89173 0)
(44.6645 3.06748 -2.67438e-19)
(44.8545 3.22441 -2.43804e-19)
(45.0501 3.39878 0)
(45.2749 3.59421 1.42726e-19)
(45.5421 3.77949 0)
(45.8527 3.97164 0)
(46.1905 4.17903 1.05977e-19)
(46.5649 4.41189 9.03566e-20)
(46.9662 4.68004 3.49965e-19)
(47.3973 4.97617 0)
(47.8824 5.29477 0)
(48.3815 5.61424 2.0675e-19)
(48.8668 5.92852 3.06835e-19)
(49.3529 6.29986 1.33368e-18)
(49.7985 6.69307 6.15722e-20)
(50.1995 7.07987 6.79897e-20)
(50.5681 7.47135 -1.64908e-18)
(51.0033 7.86135 -8.21614e-20)
(51.4907 8.17756 2.34602e-18)
(51.9134 8.48688 1.48975e-18)
(52.3516 8.82472 8.40377e-19)
(52.8663 9.12663 2.00019e-18)
(53.0509 9.29182 1.18783e-19)
(52.9772 9.38185 -2.7625e-18)
(52.08 9.30278 -1.66887e-18)
(49.1155 8.74768 -4.81708e-18)
(40.7775 6.90119 5.47579e-18)
(26.3625 3.65632 -2.46618e-18)
(9.07865 0.0722434 0)
(2.28561 -0.223675 0)
(0.232752 -0.117375 8.58117e-19)
(39.0806 -0.0783575 -1.69328e-18)
(42.4862 -0.190984 -6.33042e-19)
(42.6759 -0.00376359 7.0312e-19)
(42.735 -0.0625982 -2.43837e-20)
(42.8124 0.126847 -1.73312e-18)
(42.9289 0.14293 2.99951e-20)
(43.0388 0.308485 0)
(43.1998 0.408415 1.15955e-18)
(43.3481 0.58335 3.94019e-20)
(43.4916 0.75832 -8.8912e-22)
(43.634 0.938009 -1.56748e-18)
(43.7739 1.1144 7.72096e-19)
(43.9234 1.28423 1.95733e-21)
(44.0844 1.47438 -4.14023e-19)
(44.2422 1.68508 0)
(44.4094 1.9145 0)
(44.5681 2.14504 -4.82516e-19)
(44.7132 2.38068 -6.32204e-19)
(44.8659 2.61616 0)
(45.0182 2.8391 2.66591e-19)
(45.2001 3.05498 2.42986e-19)
(45.3908 3.21837 4.18309e-20)
(45.5941 3.37715 -2.8696e-20)
(45.8276 3.53032 -7.24853e-20)
(46.0982 3.68193 1.36775e-21)
(46.4052 3.82878 8.22269e-20)
(46.7569 3.98054 -3.17391e-19)
(47.1497 4.14849 -3.65295e-19)
(47.5848 4.35695 5.62871e-19)
(48.0387 4.61965 -7.99122e-19)
(48.5096 4.94747 0)
(48.9822 5.32279 0)
(49.4512 5.69428 8.99494e-20)
(49.9816 6.07465 -1.07759e-18)
(50.5097 6.46626 1.45907e-18)
(51.0339 6.84527 2.69664e-18)
(51.4939 7.17252 -1.01419e-18)
(51.8693 7.54131 -2.60361e-18)
(52.2612 7.89232 -3.02739e-18)
(52.7551 8.22723 -1.79982e-18)
(53.0373 8.5149 -1.01478e-19)
(53.0852 8.58935 2.28136e-18)
(52.65 8.66405 0)
(50.572 8.34154 1.65101e-18)
(44.5237 7.09745 1.90839e-18)
(33.7497 4.8966 2.21527e-18)
(14.6376 0.759912 7.48091e-18)
(4.85934 -0.427455 -2.761e-18)
(1.30488 -0.351686 0)
(0.299511 -0.152666 0)
(38.9 -0.076702 8.91816e-21)
(42.49 -0.230301 1.26624e-18)
(42.7154 -0.0942822 -7.23889e-19)
(42.7827 -0.164032 1.54668e-18)
(42.8777 -0.0204698 9.15576e-19)
(43.0062 -0.0296184 -2.03496e-22)
(43.1375 0.116904 -3.29064e-20)
(43.32 0.185205 -1.08537e-18)
(43.5049 0.319051 -7.99583e-20)
(43.7084 0.46122 -8.62616e-20)
(43.905 0.651529 7.61046e-19)
(44.0858 0.882273 1.04746e-19)
(44.2482 1.12494 9.05527e-19)
(44.396 1.36269 9.77588e-19)
(44.5247 1.59595 -1.25515e-19)
(44.6465 1.81931 1.40042e-19)
(44.7537 2.03358 0)
(44.8449 2.23048 6.05278e-19)
(44.9432 2.40204 0)
(45.0606 2.55371 0)
(45.2179 2.67928 0)
(45.3931 2.83164 9.61343e-20)
(45.5918 2.94972 -2.67358e-19)
(45.8403 3.05179 7.08952e-20)
(46.1346 3.15158 0)
(46.4647 3.2617 -7.68046e-20)
(46.8589 3.39277 -3.27672e-19)
(47.298 3.55069 -7.18381e-19)
(47.7965 3.72406 -8.81809e-19)
(48.3687 3.95232 7.9896e-19)
(48.9484 4.23334 -1.10902e-18)
(49.5496 4.54591 6.77085e-19)
(50.1362 4.91178 1.93599e-18)
(50.641 5.31612 0)
(51.0717 5.71274 1.613e-18)
(51.4272 6.09622 -3.67287e-18)
(51.8062 6.53761 -1.44188e-19)
(52.2547 6.91034 2.57553e-18)
(52.7186 7.28437 1.50952e-18)
(53.0602 7.69537 0)
(53.1635 7.82385 2.09856e-18)
(52.9323 7.97966 -2.57407e-18)
(51.4367 7.91609 5.86027e-18)
(47.0155 7.09556 0)
(38.4467 5.40675 -7.80866e-18)
(20.9828 1.66977 2.16495e-18)
(7.89435 -0.564549 -2.45609e-18)
(2.65009 -0.712561 -2.75057e-18)
(1.05571 -0.556728 6.10383e-18)
(0.531083 -0.250777 -7.95279e-22)
(38.6689 -0.148695 1.12568e-18)
(42.4598 -0.267824 -1.2465e-18)
(42.7253 -0.180667 1.38352e-18)
(42.7932 -0.278675 -3.08011e-18)
(42.9041 -0.164593 1.75896e-18)
(43.0432 -0.199008 -1.18147e-19)
(43.2042 -0.0777427 1.11222e-18)
(43.3913 -0.0131842 0)
(43.5714 0.128758 1.2763e-18)
(43.7638 0.24854 -1.49162e-18)
(43.9591 0.389113 1.68056e-21)
(44.1617 0.548269 1.05732e-19)
(44.363 0.74244 -9.02493e-19)
(44.5563 0.965391 2.57785e-20)
(44.7359 1.20935 -9.48898e-19)
(44.9073 1.46174 -1.44403e-19)
(45.0527 1.71805 0)
(45.1658 1.97548 -6.02568e-19)