/*--------------------------------*- C++ -*----------------------------------*\
| =========                 |                                                 |
| \\      /  F ield         | OpenFOAM: The Open Source CFD Toolbox           |
|  \\    /   O peration     | Version:  v1912                                 |
|   \\  /    A nd           | Website:  www.openfoam.com                      |
|    \\/     M anipulation  |                                                 |
\*---------------------------------------------------------------------------*/
FoamFile
{
    version     2.0;
    format      ascii;
    class       volScalarField;
    location    "0.27";
    object      p;
}
// * * * * * * * * * * * * * * * * * * * * * * * * * * * * * * * * * * * * * //

dimensions      [0 2 -2 0 0 0 0];


internalField   nonuniform List<scalar> 
6600
(
108.289
103.594
101.409
100.126
99.6459
99.7385
100.268
101.2
102.715
104.844
107.534
110.779
114.627
119.076
124.115
129.748
135.969
142.784
150.188
158.146
166.528
175.274
184.815
194.722
204.653
214.709
225.107
235.558
245.866
256.007
265.902
275.35
284.131
292.093
298.975
304.52
308.475
310.557
310.342
307.458
301.533
292.115
278.697
260.698
237.703
208.851
173.882
132.185
82.4032
32.7913
105.121
100.262
98.5995
97.1267
96.3509
96.1267
96.3868
97.1936
98.5617
100.498
103.018
106.116
109.794
114.065
118.913
124.328
130.296
136.809
143.868
151.457
159.644
167.929
176.42
185.547
195.019
204.409
213.794
223.25
232.535
241.475
249.998
257.955
265.105
271.252
276.179
279.599
281.257
280.861
278.055
272.414
263.546
250.993
234.254
212.761
186.106
153.462
114.682
69.5984
17.7131
-32.2087
100.707
95.5786
94.6033
93.0591
92.1917
91.8944
91.9967
92.7107
94.0837
96.0043
98.5145
101.591
105.25
109.489
114.278
119.61
125.463
131.818
138.656
145.908
153.615
161.678
169.866
178.195
186.704
195.344
203.922
212.282
220.33
227.953
235.019
241.324
246.646
250.82
253.598
254.715
253.9
250.833
245.22
236.662
224.736
209.006
189.032
164.296
134.338
98.6104
56.8962
9.8318
-41.74
-88.9584
95.4709
90.0547
89.5905
87.8594
86.9955
86.6578
86.8705
87.6464
89.0395
91.0452
93.6347
96.7937
100.525
104.811
109.619
114.932
120.715
126.93
133.557
140.54
147.934
155.563
163.186
170.922
178.752
186.467
193.989
201.268
208.115
214.335
219.812
224.394
227.851
229.961
230.524
229.268
225.913
220.169
211.763
200.321
185.448
166.77
143.922
116.476
84.0639
46.2804
3.04143
-44.4731
-94.3528
-136.914
89.3809
83.7285
83.6152
81.5663
80.8139
80.5441
80.7893
81.6949
83.2217
85.3323
87.9993
91.2298
95.0141
99.3153
104.103
109.362
115.056
121.122
127.519
134.155
140.994
148.153
155.46
162.595
169.555
176.413
182.97
189.057
194.597
199.424
203.366
206.224
207.808
207.924
206.323
202.768
197.004
188.777
177.804
163.763
146.346
125.256
100.223
70.9462
37.1555
-1.39512
-44.7777
-91.5701
-138.546
-175.009
82.7313
76.4391
76.5511
74.207
73.5207
73.3464
73.7252
74.7031
76.2834
78.4484
81.1694
84.4286
88.2059
92.4597
97.169
102.302
107.815
113.651
119.757
126.091
132.592
139.101
145.628
152.19
158.508
164.41
169.919
174.927
179.206
182.617
185.03
186.268
186.099
184.316
180.726
175.099
167.214
156.839
143.724
127.633
108.336
85.6246
59.3212
29.2315
-4.82765
-43.0597
-85.2596
-130.125
-173.432
-202.694
74.8461
68.354
68.1691
65.7779
65.2268
65.059
65.485
66.4951
68.1215
70.292
72.9851
76.1816
79.8512
83.9673
88.5057
93.4209
98.6766
104.219
109.974
115.852
121.841
127.924
133.914
139.632
145.073
150.177
154.725
158.574
161.627
163.73
164.73
164.416
162.621
159.181
153.876
146.515
136.917
124.888
110.239
92.7981
72.418
48.9718
22.3706
-7.49118
-40.7759
-77.7362
-118.04
-160.071
-198.861
-220.632
65.642
59.0926
58.5977
56.1642
55.6703
55.5606
55.9953
56.9678
58.5369
60.6381
63.2301
66.2971
69.7969
73.7198
78.0172
82.6439
87.5662
92.7338
98.0974
103.601
109.103
114.45
119.667
124.775
129.521
133.7
137.275
140.111
142.039
142.911
142.593
140.951
137.793
132.952
126.284
117.622
106.821
93.7301
78.2161
60.1797
39.5344
16.219
-9.80094
-38.5851
-70.2207
-104.953
-142.779
-181.44
-215.5
-230.929
54.281
48.2584
47.6557
45.2454
44.7868
44.6531
45.0962
46.0618
47.516
49.4953
51.9079
54.7534
58.0218
61.665
65.6462
69.9415
74.4949
79.2586
84.1707
89.129
94.0857
99.022
103.724
107.992
111.848
115.241
117.962
119.844
120.757
120.591
119.221
116.464
112.215
106.363
98.7527
89.2642
77.7915
64.2434
48.5405
30.6191
10.4398
-12.0059
-36.6956
-63.6385
-92.9706
-124.885
-159.285
-194.237
-224.322
-235.814
41.1034
35.7909
35.198
32.85
32.4314
32.2511
32.6247
33.508
34.8482
36.63
38.847
41.4592
44.4381
47.774
51.4336
55.3633
59.5185
63.8466
68.3078
72.8808
77.3816
81.6091
85.605
89.373
92.685
95.313
97.2093
98.2854
98.4138
97.4297
95.2189
91.701
86.7439
80.2381
72.1035
62.2631
50.6555
37.2186
21.9083
4.70926
-14.3773
-35.3329
-58.117
-82.692
-109.013
-137.543
-167.583
-197.697
-223.249
-233.903
26.1629
21.4308
21.0562
18.9803
18.5897
18.3542
18.6062
19.3684
20.5642
22.1253
24.0664
26.3794
29.0455
32.0396
35.3329
38.8856
42.6658
46.6113
50.636
54.6324
58.6133
62.5898
66.3137
69.491
72.1171
74.1833
75.5717
76.079
75.5852
74.0472
71.3599
67.378
62.0405
55.2992
47.0844
37.3458
26.0498
13.1856
-1.242
-17.2179
-34.7226
-53.7097
-74.0853
-95.7321
-118.796
-143.109
-167.632
-190.418
-206.968
-216.7
9.96249
5.53983
5.32771
3.47126
3.17716
2.87039
3.0056
3.5582
4.48844
5.79788
7.45316
9.44114
11.7682
14.4269
17.369
20.5759
23.9937
27.5829
31.3065
35.1156
38.7942
42.1336
45.2395
48.1871
50.7095
52.482
53.4333
53.595
52.8633
51.0732
48.1545
44.0689
38.7459
32.1229
24.1749
14.9023
4.31217
-7.58625
-20.7655
-35.1747
-50.7353
-67.3632
-84.9707
-103.387
-122.654
-141.936
-159.994
-173.926
-180.098
-186.064
-8.05449
-11.801
-11.812
-13.4037
-13.6627
-14.0908
-14.115
-13.7983
-13.1779
-12.2153
-10.9222
-9.31003
-7.3425
-5.07328
-2.49162
0.379634
3.48903
6.7852
10.2067
13.6307
17.0713
20.5603
23.793
26.4263
28.5314
30.1974
31.2543
31.4156
30.6225
28.8858
26.1214
22.2337
17.1939
11.0039
3.6598
-4.83411
-14.4509
-25.1399
-36.8332
-49.4386
-62.8539
-76.9326
-91.4796
-106.629
-121.653
-135.638
-147.573
-155.811
-159.601
-161.554
-27.3339
-30.3713
-30.1659
-31.6098
-31.9131
-32.4972
-32.7554
-32.7539
-32.4919
-31.9684
-31.1092
-29.8984
-28.3486
-26.437
-24.1802
-21.6056
-18.7454
-15.6387
-12.3088
-8.80419
-5.37742
-2.26069
0.725545
3.66032
6.2255
8.06458
9.18565
9.62783
9.2344
7.86361
5.47468
2.06294
-2.38183
-7.88119
-14.4257
-21.9584
-30.4181
-39.7385
-49.8268
-60.5791
-71.8298
-83.3759
-95.1686
-106.977
-118.263
-128.225
-135.766
-139.962
-144.886
-145.505
-47.9279
-49.6946
-49.4557
-50.7537
-51.1807
-51.9946
-52.591
-52.9837
-53.1424
-53.0883
-52.7828
-52.108
-51.0224
-49.5541
-47.68
-45.4043
-42.7506
-39.7673
-36.5506
-33.1838
-29.6344
-25.908
-22.3314
-19.2342
-16.5417
-14.1716
-12.3718
-11.3659
-11.2052
-11.9292
-13.5952
-16.2634
-19.9459
-24.6047
-30.1917
-36.6561
-43.9175
-51.8698
-60.4127
-69.3968
-78.6665
-88.0821
-97.4846
-106.601
-114.96
-121.988
-126.935
-129.999
-132.001
-133.061
-69.0652
-69.7691
-69.2853
-70.5665
-71.1777
-72.3959
-73.4585
-74.3747
-75.1752
-75.7419
-75.9942
-75.9069
-75.3978
-74.3851
-72.8681
-70.8663
-68.3827
-65.4487
-62.0746
-58.308
-54.4002
-50.6059
-46.7872
-42.9018
-39.2428
-36.1072
-33.5486
-31.65
-30.5463
-30.3261
-31.0945
-32.8585
-35.592
-39.276
-43.8664
-49.2667
-55.3766
-62.0974
-69.2757
-76.8075
-84.4534
-92.0467
-99.5545
-106.634
-112.876
-117.691
-120.77
-123.708
-124.553
-125.259
-89.7455
-89.4833
-89.1321
-90.4851
-91.382
-93.049
-94.691
-96.3693
-97.8637
-99.172
-100.287
-100.951
-101.112
-100.716
-99.7151
-98.0621
-95.7737
-92.8688
-89.3974
-85.4637
-81.1041
-76.3564
-71.4363
-66.6844
-62.2262
-58.0528
-54.3153
-51.198
-48.8721
-47.5079
-47.115
-47.7492
-49.4215
-52.0895
-55.6873
-60.1294
-65.2859
-70.9967
-77.2056
-83.5276
-89.6643
-95.8676
-101.968
-107.463
-111.826
-114.76
-117.42
-118.816
-119.627
-119.978
-109.655
-108.154
-108.133
-109.766
-111.24
-113.695
-116.144
-118.705
-121.327
-123.606
-125.569
-127.178
-128.194
-128.517
-128.089
-126.854
-124.783
-121.902
-118.219
-113.704
-108.549
-103.147
-97.5811
-91.6709
-85.6994
-79.9697
-74.7534
-70.199
-66.4298
-63.5336
-61.7427
-61.1167
-61.6435
-63.2665
-65.9018
-69.4532
-73.8301
-79.0042
-84.4107
-89.5737
-94.837
-100.135
-104.867
-108.735
-111.635
-113.489
-114.853
-115.876
-116.568
-116.704
-127.589
-125.753
-126.02
-128.023
-130.149
-133.437
-136.917
-140.634
-144.375
-147.983
-151.216
-153.972
-156.141
-157.507
-157.924
-157.317
-155.641
-152.869
-149.036
-144.186
-138.428
-131.866
-124.676
-117.168
-109.762
-102.5
-95.4877
-88.9882
-83.2859
-78.6818
-75.2498
-73.1236
-72.3125
-72.7823
-74.4821
-77.3517
-81.4148
-86.1111
-90.758
-95.5856
-100.554
-104.953
-108.221
-110.376
-111.77
-112.998
-113.683
-114.494
-115.057
-115.168
-142.605
-140.174
-141.786
-144.477
-147.546
-152.003
-156.758
-161.877
-167.237
-172.451
-177.178
-181.396
-184.961
-187.616
-189.116
-189.355
-188.239
-185.742
-181.859
-176.553
-169.801
-162.082
-153.806
-144.845
-135.377
-125.847
-116.599
-107.942
-100.102
-93.2639
-87.7776
-83.8053
-81.4629
-80.7697
-81.5647
-83.7648
-87.3943
-91.7725
-96.676
-101.984
-106.82
-110.255
-112.068
-112.804
-113.19
-113.435
-113.845
-114.375
-114.759
-114.919
-154.228
-152.286
-154.958
-158.419
-162.687
-168.485
-174.713
-181.502
-188.544
-195.746
-202.554
-208.591
-213.856
-218.203
-221.37
-222.918
-222.771
-220.872
-217.173
-211.685
-204.487
-195.632
-185.317
-174.116
-162.49
-150.719
-138.993
-127.645
-117.027
-107.578
-99.5919
-93.3884
-89.1579
-86.8907
-86.6196
-88.1602
-91.527
-96.3348
-102.153
-108.085
-112.809
-115.578
-116.74
-116.562
-116.015
-115.546
-115.113
-114.821
-114.724
-114.811
-161.598
-161.559
-165.051
-169.497
-175.084
-182.479
-190.399
-199.13
-208.278
-217.561
-226.772
-235.457
-243.099
-249.525
-254.553
-257.847
-259.09
-258.162
-254.957
-249.401
-241.497
-231.535
-219.855
-206.923
-192.809
-178.05
-163.173
-148.618
-134.836
-122.189
-111.167
-102.102
-95.3031
-91.0838
-89.4541
-90.3496
-93.5008
-98.8509
-105.694
-112.603
-117.738
-120.423
-121.22
-120.757
-119.434
-117.71
-116.118
-114.86
-114.226
-113.985
-164.368
-166.895
-171.283
-177.243
-184.25
-193.295
-203.036
-213.879
-225.315
-237.104
-248.966
-260.482
-271.128
-280.379
-287.895
-293.548
-296.932
-297.683
-295.58
-290.564
-282.663
-271.953
-258.529
-242.925
-225.937
-208.097
-189.892
-171.74
-154.159
-137.736
-122.9
-110.228
-100.295
-93.3668
-89.5388
-88.9766
-91.8199
-98.0354
-106.409
-114.602
-120.376
-123.244
-123.877
-122.91
-120.885
-118.441
-116.041
-114.033
-112.773
-112.068
-161.917
-167.717
-173.312
-181.138
-189.692
-200.679
-212.2
-225.319
-239.254
-253.754
-268.562
-283.34
-297.482
-310.323
-321.283
-329.989
-336.165
-339.156
-338.837
-334.888
-327.1
-315.576
-301.012
-283.773
-264.086
-242.705
-220.465
-197.938
-175.85
-154.744
-135.449
-118.515
-104.428
-93.7649
-86.8392
-84.2066
-86.855
-94.1342
-103.688
-112.623
-119.111
-122.871
-123.816
-122.945
-121.068
-118.596
-115.667
-113.19
-111.537
-110.315
-155.99
-164.589
-171.269
-180.875
-191.353
-203.904
-217.395
-232.988
-249.534
-266.861
-284.84
-303.074
-321.078
-338.103
-353.321
-366.008
-375.593
-381.943
-384.45
-382.614
-376.182
-365.049
-349.461
-329.76
-306.831
-281.798
-255.201
-227.938
-200.682
-174.444
-149.896
-127.429
-108.249
-93.1907
-82.4449
-77.2981
-79.2873
-87.0722
-96.8473
-106.454
-114.434
-120.171
-123.771
-125.096
-124.44
-122.292
-119.179
-116.107
-113.925
-112.358
-146.957
-158.306
-165.862
-177.039
-189.033
-202.974
-218.416
-236.414
-255.368
-275.736
-297.16
-319.21
-341.398
-363.042
-383.198
-400.841
-415.225
-425.798
-431.957
-433.208
-428.827
-418.425
-402.348
-381.35
-356.186
-327.404
-296.135
-263.604
-230.639
-197.928
-166.595
-138.238
-113.554
-93.0524
-78.0556
-70.1975
-70.9952
-78.233
-88.5442
-99.163
-110.583
-120.432
-127.067
-130.518
-131.194
-129.554
-126.374
-122.887
-120.397
-118.79
-137.219
-149.211
-157.762
-169.836
-182.748
-198.09
-215.398
-235.069
-256.525
-279.924
-304.799
-330.811
-357.485
-384.159
-409.842
-433.257
-453.335
-469.219
-480.156
-485.831
-485.196
-477.634
-462.53
-440.476
-412.3
-379.617
-343.808
-305.559
-265.52
-225.827
-188.013
-153.091
-121.589
-94.3799
-76.5876
-67.7147
-66.7388
-72.6105
-82.3311
-94.2861
-107.822
-120.38
-129.927
-135.592
-137.435
-136.577
-134.043
-130.837
-128.572
-127.55
-127.379
-138.477
-147.781
-160.424
-173.865
-190.011
-208.404
-229.623
-253.206
-279.213
-307.342
-337.281
-368.663
-400.763
-432.554
-462.451
-489.108
-511.526
-528.78
-540.067
-544.588
-540.707
-527.269
-505.232
-475.987
-440.147
-399.454
-355.283
-309.42
-262.686
-216.72
-172.89
-134.291
-104.057
-83.0225
-72.5772
-70.3422
-74.7241
-83.9987
-95.5945
-108.476
-120.789
-130.525
-136.56
-139.169
-139.419
-138.133
-136.071
-135.004
-134.781
-122.763
-126.802
-136.753
-149.218
-162.908
-179.487
-198.442
-220.607
-245.715
-273.758
-304.503
-338.021
-374.129
-411.993
-450.255
-487.087
-520.998
-551.324
-576.439
-594.538
-605.567
-607.414
-598.647
-578.88
-548.579
-509.234
-463.359
-414.101
-363.727
-306.649
-250.439
-198.868
-155.092
-121.04
-99.9103
-87.6398
-83.447
-85.5277
-92.1416
-101.243
-111.69
-122.138
-130.953
-136.503
-139.126
-139.784
-139.552
-139.016
-139.185
-139.731
-136.314
-118.13
-126.509
-138.216
-151.841
-168.262
-187.372
-210.112
-235.922
-265.199
-298.165
-334.342
-374.648
-417.865
-461.537
-505.834
-547.873
-586.62
-620.557
-647.75
-666.766
-675.697
-672.021
-654.798
-627.29
-587.327
-536.815
-481.38
-424.263
-361.296
-295.154
-234.923
-186.714
-150.562
-125.068
-108.959
-101.954
-101.293
-104.615
-110.748
-118.227
-125.768
-132.191
-136.588
-138.976
-139.924
-140.377
-141.134
-142.189
-143.223
28.6427
23.6762
21.2919
19.8327
19.1164
18.7918
18.6035
18.5916
18.9177
19.6272
20.6651
22.0051
23.6788
25.654
27.9006
30.4516
33.3076
36.472
39.9802
43.7877
47.8532
52.1356
56.6084
61.1977
65.8825
70.6401
75.3751
79.9053
84.0992
87.8598
91.0752
93.6032
95.2054
95.5706
94.4136
91.4441
86.3042
78.6003
67.9147
53.7849
35.7566
13.2025
-14.5877
-48.2878
-88.5586
-136.22
-191.406
-255.081
-329.714
-404.757
25.0512
19.2705
17.3072
15.3085
14.0162
13.0992
12.4473
12.1236
12.1112
12.4244
13.0661
14.0092
15.2322
16.7354
18.5152
20.5633
22.8818
25.4754
28.3524
31.481
34.8223
38.3222
41.9222
45.5442
49.1526
52.7754
56.3016
59.5423
62.3055
64.5
66.0132
66.6806
66.2976
64.5002
60.9879
55.4748
47.5885
36.9322
23.0742
5.52717
-16.2349
-42.7525
-74.7285
-112.853
-157.807
-210.396
-270.713
-339.101
-416.903
-493.205
19.4686
13.0577
11.8235
9.35797
7.71435
6.38608
5.33617
4.6612
4.36048
4.34582
4.62802
5.19663
6.01329
7.10591
8.45169
10.0332
11.8532
13.9081
16.1827
18.6475
21.2705
24.0105
26.7681
29.4621
32.111
34.6157
36.8416
38.6699
39.9839
40.5782
40.2763
38.926
36.3217
32.1466
26.0876
17.8295
7.01218
-6.76619
-23.9506
-45.0283
-70.5445
-101.053
-137.061
-179.249
-228.275
-284.875
-349.143
-420.496
-498.331
-571.625
12.5321
5.57417
4.78749
1.85783
-0.056402
-1.67203
-2.94611
-3.8796
-4.50487
-4.80935
-4.82937
-4.62843
-4.16622
-3.45648
-2.53298
-1.39613
-0.0620313
1.44791
3.12543
4.92828
6.81765
8.73131
10.628
12.4279
14.0064
15.3305
16.2811
16.6949
16.3994
15.2771
13.1098
9.6854
4.79916
-1.84816
-10.5515
-21.6221
-35.4338
-52.3779
-72.8821
-97.4163
-126.49
-160.59
-200.12
-245.649
-297.76
-357.112
-423.718
-496.045
-572.044
-639.991
4.75431
-2.96686
-3.66082
-7.03661
-9.13842
-10.9451
-12.4483
-13.6335
-14.4793
-15.0677
-15.4442
-15.5759
-15.4746
-15.1742
-14.6958
-14.0375
-13.2285
-12.3016
-11.2649
-10.1675
-9.05237
-7.95168
-6.99135
-6.25506
-5.77899
-5.67391
-6.09635
-7.16499
-9.01918
-11.8826
-15.9533
-21.4423
-28.5965
-37.6767
-48.963
-62.7783
-79.4746
-99.4169
-122.992
-150.612
-182.706
-219.684
-261.891
-309.76
-363.714
-424.242
-491.272
-563.018
-635.932
-696.787
-4.10517
-12.5321
-13.4796
-17.3036
-19.4788
-21.4619
-23.1794
-24.5972
-25.7543
-26.6637
-27.3548
-27.8636
-28.1786
-28.3385
-28.3579
-28.242
-28.0201
-27.7352
-27.4055
-27.0815
-26.8184
-26.6858
-26.6932
-26.9588
-27.6049
-28.7508
-30.5164
-33.087
-36.6018
-41.1988
-47.1232
-54.6176
-63.9079
-75.2729
-88.9733
-105.291
-124.553
-147.086
-173.214
-203.279
-237.624
-276.55
-320.332
-369.297
-423.744
-483.988
-549.982
-619.853
-688.292
-740.471
-14.927
-23.445
-24.6577
-28.7776
-30.9808
-33.1639
-35.1001
-36.8193
-38.2755
-39.5411
-40.6492
-41.5864
-42.3941
-43.0921
-43.6862
-44.2013
-44.6588
-45.1002
-45.5559
-46.0721
-46.6934
-47.4532
-48.5112
-49.9453
-51.8268
-54.2303
-57.3344
-61.3247
-66.3777
-72.6593
-80.3597
-89.7026
-100.946
-114.339
-130.116
-148.539
-169.878
-194.404
-222.388
-254.079
-289.732
-329.572
-373.789
-422.617
-476.312
-535.149
-598.698
-665.097
-728.017
-770.106
-27.3829
-35.7259
-37.1044
-41.4388
-43.748
-46.1055
-48.2976
-50.3013
-52.1557
-53.8449
-55.4178
-56.8991
-58.2948
-59.6152
-60.8858
-62.1251
-63.3491
-64.5941
-65.9057
-67.3251
-68.9022
-70.6977
-72.746
-75.1979
-78.1878
-81.8496
-86.3152
-91.7284
-98.2449
-106.056
-115.362
-126.37
-139.278
-154.324
-171.736
-191.726
-214.518
-240.328
-269.353
-301.792
-337.811
-377.538
-421.09
-468.629
-520.382
-576.728
-637.249
-699.198
-755.306
-786.824
-41.791
-49.4113
-50.8331
-55.2317
-57.6646
-60.2783
-62.7778
-65.1237
-67.3591
-69.5688
-71.7276
-73.8244
-75.899
-77.9471
-79.9879
-82.0354
-84.103
-86.2259
-88.4473
-90.8059
-93.3451
-96.1187
-99.2931
-102.889
-107.045
-111.847
-117.469
-124.102
-131.903
-141.02
-151.648
-163.961
-178.162
-194.454
-212.988
-233.956
-257.536
-283.886
-313.164
-345.481
-380.942
-419.624
-461.586
-506.94
-555.862
-608.707
-665.378
-722.268
-771.105
-792.852
-57.3208
-64.2918
-65.7209
-70.1403
-72.6495
-75.6324
-78.4656
-81.2305
-84.0178
-86.7904
-89.5793
-92.4126
-95.2658
-98.1364
-101.034
-103.966
-106.958
-110.018
-113.175
-116.479
-119.98
-123.722
-127.807
-132.363
-137.51
-143.425
-150.194
-157.926
-166.78
-176.94
-188.572
-201.849
-216.908
-233.901
-253.006
-274.354
-298.068
-324.259
-353.013
-384.427
-418.553
-455.4
-494.972
-537.315
-582.596
-631.213
-682.949
-734.61
-777.795
-793.241
-74.1113
-80.1983
-81.6033
-85.9854
-88.6438
-91.9426
-95.2278
-98.5106
-101.868
-105.332
-108.898
-112.541
-116.25
-120.018
-123.843
-127.73
-131.679
-135.702
-139.83
-144.095
-148.545
-153.25
-158.279
-163.847
-169.922
-176.628
-184.141
-192.647
-202.271
-213.128
-225.381
-239.15
-254.6
-271.876
-291.028
-312.172
-335.409
-360.803
-388.419
-418.266
-450.358
-484.7
-521.266
-560.014
-600.929
-644.644
-690.184
-735.267
-772.767
-787.286
-91.5924
-97.0458
-98.3369
-102.606
-105.431
-109.154
-112.903
-116.807
-120.889
-125.115
-129.526
-134.077
-138.729
-143.479
-148.3
-153.172
-158.114
-163.131
-168.23
-173.431
-178.778
-184.35
-190.205
-196.411
-203.168
-210.572
-218.73
-227.753
-237.773
-248.947
-261.413
-275.315
-290.722
-307.703
-326.398
-346.863
-369.127
-393.216
-419.119
-446.858
-476.411
-507.71
-540.675
-575.196
-611.436
-649.251
-687.056
-722.259
-748.303
-762.184
-109.317
-114.208
-115.425
-119.678
-122.688
-126.866
-131.203
-135.781
-140.641
-145.812
-151.157
-156.689
-162.393
-168.225
-174.128
-180.053
-186.008
-191.983
-198.011
-204.127
-210.335
-216.678
-223.272
-230.144
-237.408
-245.158
-253.516
-262.654
-272.735
-283.868
-296.162
-309.691
-324.597
-340.987
-358.827
-378.156
-399.004
-421.359
-445.214
-470.48
-497.076
-524.922
-553.852
-583.61
-614.84
-645.862
-674.58
-696.991
-707.779
-717.449
-127.26
-131.07
-132.442
-136.699
-140.097
-144.786
-149.687
-155.067
-160.815
-166.905
-173.285
-179.915
-186.729
-193.674
-200.73
-207.822
-214.89
-221.934
-228.958
-235.979
-242.989
-250.003
-257.09
-264.355
-271.856
-279.735
-288.146
-297.176
-306.921
-317.54
-329.211
-342.072
-356.142
-371.427
-388.034
-405.961
-425.148
-445.539
-467.035
-489.578
-513.058
-537.269
-561.907
-587.15
-612.274
-635.946
-656.254
-670.193
-675.424
-678.826
-144.436
-147.477
-148.869
-153.266
-156.987
-162.296
-167.965
-174.169
-180.936
-188.112
-195.679
-203.515
-211.535
-219.688
-227.94
-236.259
-244.54
-252.728
-260.777
-268.672
-276.431
-284.045
-291.59
-299.129
-306.712
-314.456
-322.436
-330.854
-339.929
-349.792
-360.528
-372.224
-385.042
-399.083
-414.257
-430.518
-447.819
-466.074
-485.213
-505.069
-525.453
-546.113
-566.962
-587.738
-607.561
-625.151
-638.39
-645.802
-653.336
-654.532
-160.312
-162.318
-164.114
-168.761
-172.982
-178.977
-185.437
-192.633
-200.488
-208.894
-217.767
-226.97
-236.443
-246.063
-255.718
-265.365
-274.914
-284.255
-293.325
-302.093
-310.558
-318.724
-326.588
-334.158
-341.554
-348.892
-356.357
-364.059
-372.064
-380.597
-389.926
-400.239
-411.59
-423.982
-437.487
-452.054
-467.535
-483.782
-500.617
-517.925
-535.575
-553.285
-570.794
-587.623
-603.123
-616.201
-625.16
-629.11
-632.343
-634.508
-173.814
-175.434
-177.526
-182.488
-187.269
-194.145
-201.551
-209.801
-218.85
-228.587
-238.841
-249.557
-260.588
-271.807
-283.074
-294.231
-305.2
-315.869
-326.13
-335.932
-345.23
-354.005
-362.153
-369.757
-376.909
-383.667
-390.134
-396.505
-403.14
-410.216
-417.878
-426.322
-435.785
-446.453
-458.266
-471.096
-484.794
-499.166
-514.07
-529.39
-544.839
-559.962
-574.542
-588.17
-600.127
-609.208
-614.427
-619.271
-619.778
-621.658
-184.855
-185.834
-188.458
-193.964
-199.426
-207.208
-215.621
-225.15
-235.55
-246.717
-258.536
-270.878
-283.593
-296.555
-309.607
-322.553
-335.244
-347.541
-359.284
-370.305
-380.495
-389.871
-398.343
-405.909
-412.578
-418.545
-424.001
-429.126
-434.01
-438.994
-444.472
-450.753
-458.112
-466.685
-476.588
-487.775
-499.985
-512.966
-526.494
-540.286
-553.792
-566.604
-578.824
-589.795
-598.388
-603.749
-607.586
-609.854
-611.046
-612.053
-192.403
-193.279
-196.5
-202.607
-208.746
-217.688
-227.131
-237.931
-249.82
-262.642
-276.219
-290.414
-305.082
-320.028
-335.079
-350.057
-364.719
-378.858
-392.289
-404.801
-416.207
-426.395
-435.404
-443.119
-449.552
-454.759
-458.869
-462.085
-464.874
-467.605
-470.561
-474.187
-478.856
-485.009
-492.862
-502.351
-513.284
-525.308
-538.106
-550.947
-562.863
-573.958
-583.951
-591.976
-597.24
-599.962
-602.079
-603.558
-604.843
-605.398
-195.036
-197.234
-201.208
-208.129
-215.042
-225.138
-235.609
-247.853
-261.298
-275.784
-291.226
-307.457
-324.306
-341.544
-358.923
-376.222
-393.17
-409.499
-424.965
-439.322
-452.316
-463.777
-473.638
-481.616
-487.72
-492.08
-494.935
-496.503
-497.059
-496.929
-496.757
-497.075
-498.537
-501.649
-506.839
-514.428
-524.246
-535.985
-548.917
-561.281
-572.429
-582.185
-589.589
-594.07
-596.086
-597.634
-598.309
-599.56
-600.743
-601.229
-193.418
-197.602
-202.335
-210.039
-217.885
-229.344
-240.669
-254.322
-269.298
-285.494
-302.87
-321.235
-340.4
-360.127
-380.145
-400.144
-419.827
-438.873
-456.937
-473.677
-488.777
-501.94
-512.973
-521.72
-528.094
-532.081
-533.754
-533.341
-531.089
-527.729
-523.892
-520.329
-517.771
-516.982
-518.714
-523.637
-532.204
-544.215
-557.725
-571.005
-582.882
-591.362
-595.634
-596.569
-596.705
-596.465
-596.754
-597.488
-598.263
-598.709
-187.696
-194.513
-199.911
-208.63
-217.47
-229.829
-242.225
-257.309
-273.654
-291.505
-310.79
-331.335
-352.929
-375.35
-398.295
-421.382
-444.248
-466.496
-487.708
-507.461
-525.302
-540.794
-553.69
-563.92
-570.992
-574.76
-575.365
-573.155
-568.456
-561.708
-553.593
-545.088
-537.34
-531.404
-528.254
-529.014
-535.531
-547.294
-562.939
-579.658
-593.613
-600.913
-602.126
-600.984
-599.051
-597.655
-596.672
-596.09
-595.97
-596.252
-179.087
-188.062
-193.993
-203.833
-213.917
-226.677
-240.31
-256.505
-274.095
-293.543
-314.697
-337.421
-361.519
-386.752
-412.794
-439.256
-465.691
-491.623
-516.553
-539.975
-561.323
-580.075
-595.696
-607.957
-616.499
-621.091
-621.532
-617.909
-610.428
-599.689
-586.597
-572.365
-558.255
-545.591
-535.874
-530.652
-532.876
-543.784
-562.036
-583.831
-601.949
-609.932
-609.758
-606.229
-602.871
-599.34
-596.265
-593.922
-592.784
-592.549
-167.5
-178.751
-185.156
-196.077
-206.858
-220.261
-234.927
-251.914
-270.741
-291.62
-314.451
-339.176
-365.661
-393.694
-422.949
-453.018
-483.396
-513.53
-542.823
-570.656
-596.378
-619.296
-638.67
-653.929
-664.956
-670.975
-671.666
-667.164
-657.753
-643.675
-625.709
-604.978
-582.968
-561.555
-543.02
-529.396
-524.062
-530.989
-550.827
-579.111
-604.185
-615.124
-615.329
-609.586
-604.332
-598.951
-594.03
-590.202
-587.932
-586.971
-154.073
-167.147
-173.631
-185.426
-196.895
-210.817
-226.146
-243.801
-263.524
-285.577
-309.827
-336.319
-364.988
-395.776
-428.262
-462.061
-496.656
-531.406
-565.625
-598.595
-629.527
-657.576
-681.844
-701.416
-715.882
-724.724
-727.307
-723.168
-712.472
-695.136
-671.978
-644.294
-613.896
-582.39
-552.078
-525.793
-509.235
-509.278
-527.617
-559.453
-592.175
-609.785
-613.107
-608.758
-602.897
-596.828
-590.807
-585.937
-582.915
-581.144
-139.309
-153.647
-160.555
-172.901
-184.465
-198.657
-214.317
-232.46
-252.799
-275.715
-301.201
-329.186
-359.612
-392.837
-428.358
-465.854
-504.775
-544.432
-584.063
-622.824
-659.816
-694.038
-724.441
-749.925
-769.475
-782.45
-787.861
-785.148
-774.089
-754.871
-727.936
-694.076
-654.604
-611.135
-566.474
-524.385
-492.534
-480.608
-491.735
-521.597
-559.896
-587.38
-602.124
-607.94
-607.497
-602.469
-595.773
-589.419
-584.964
-582.091
-124.885
-139.024
-146.532
-158.77
-170.344
-184.494
-200.167
-218.336
-238.804
-262.124
-288.447
-317.912
-349.52
-385.005
-423.32
-464.318
-507.472
-552.143
-597.503
-642.529
-686.22
-727.549
-765.259
-798.006
-824.293
-842.99
-853.397
-854.278
-844.895
-824.982
-794.899
-754.951
-706.136
-651.155
-592.103
-532.834
-482.419
-454.58
-453.898
-479.476
-519.58
-565.419
-597.886
-615.545
-619.798
-615.318
-607.603
-600.378
-595.274
-592.134
-112.031
-123.599
-132.328
-144.046
-155.348
-169.151
-184.416
-202.257
-222.47
-245.779
-272.346
-302.447
-335.787
-372.747
-413.306
-457.45
-504.632
-554.24
-605.398
-657.054
-708.068
-757.251
-803.279
-844.558
-879.308
-905.971
-923.089
-929.098
-923.213
-904.743
-873.251
-830.084
-775.428
-709.066
-634.167
-556.062
-491.897
-450.625
-438.284
-451.357
-492.581
-548.456
-595.338
-625.21
-634.352
-628.853
-620.994
-613.624
-608.407
-605.901
-103.872
-108.613
-118.335
-129.054
-140.138
-153.406
-167.934
-185.022
-204.52
-227.256
-253.534
-283.826
-318.013
-356.282
-398.967
-445.765
-496.582
-550.896
-607.842
-666.249
-724.845
-782.468
-837.718
-888.752
-933.298
-969.483
-995.566
-1009.76
-1010.69
-996.628
-966.328
-921.613
-864.985
-782.884
-694.282
-602.935
-530.624
-479.227
-456.993
-461.844
-491.85
-540.571
-590.861
-626.028
-638.642
-633.969
-627.144
-621.239
-617.62
-616.217
-118.529
-97.5743
-105.509
-114.946
-125.687
-138.198
-151.758
-167.751
-186.298
-208.26
-233.894
-263.807
-298.328
-337.749
-382.035
-431.002
-484.89
-543.471
-605.845
-670.811
-737.083
-803.448
-868.61
-929.764
-984.376
-1031.26
-1068.89
-1093.21
-1103.15
-1097.06
-1071.72
-1024.4
-962.495
-876.488
-774.887
-684.504
-602.303
-540.904
-506.493
-498.902
-515.285
-550.687
-592.754
-625.193
-637.246
-633.853
-627.61
-623.625
-621.881
-621.782
-99.1788
-83.3124
-92.5466
-102.553
-113.604
-125.517
-138.289
-153.255
-170.705
-191.618
-216.638
-246.465
-281.439
-322.026
-367.831
-419.198
-476.393
-539.658
-608.672
-682.393
-758.831
-835.99
-912.028
-984.777
-1051.94
-1110.83
-1159.14
-1195.94
-1217.23
-1221.97
-1201.31
-1155.67
-1067.35
-965.114
-858.909
-759.842
-677.163
-618.902
-581.196
-565.76
-569.108
-585.82
-608.974
-626.982
-631.338
-627.2
-623.23
-622.259
-622.915
-623.985
-86.0584
-82.657
-88.626
-96.9839
-107.309
-118.896
-132.422
-148.212
-166.739
-189.189
-216.403
-249.064
-287.285
-331.367
-381.902
-439.403
-503.838
-575.318
-653.37
-736.385
-822.389
-909.948
-997.259
-1081.53
-1159.01
-1227.11
-1283.79
-1323.81
-1342.72
-1336.78
-1296.38
-1219.17
-1124
-1017.54
-911.869
-813.23
-736.801
-682.821
-648.41
-629.957
-624.361
-627.626
-633.263
-635.076
-631.009
-623.673
-620.672
-621.277
-623.342
-624.785
-76.0902
-80.9636
-86.564
-94.1746
-104.02
-115.539
-130.193
-147.916
-169.244
-195.311
-226.355
-263.448
-307.258
-358.394
-417.699
-485.161
-560.422
-642.862
-731.545
-825.045
-922.548
-1022.49
-1121.77
-1215.14
-1299.65
-1371.74
-1429.88
-1464.63
-1468.94
-1436.21
-1378
-1295.38
-1196.22
-1089.58
-987.887
-895.36
-818.312
-760.064
-718.942
-692.976
-677.022
-667.659
-659.509
-649.635
-637.965
-627.304
-622.255
-623.434
-625.408
-627.256
-68.1849
-75.0756
-81.5364
-89.6232
-99.8621
-112.182
-127.763
-147.201
-171.121
-200.457
-235.928
-278.678
-329.567
-389.69
-459.395
-538.467
-626.302
-722.138
-825.729
-935.424
-1049.34
-1163.66
-1272.3
-1371.5
-1459.94
-1536.59
-1589.03
-1607.51
-1593.63
-1552.64
-1485.67
-1398.68
-1297.28
-1192.58
-1085.41
-988.079
-903.764
-837.905
-788.201
-752.605
-727.014
-706.668
-688.564
-670.515
-653.023
-638.35
-629.501
-627.912
-630.37
-633.151
-59.6287
-66.5301
-73.6419
-82.0481
-92.3286
-105.457
-121.692
-142.15
-168.185
-200.616
-241.044
-290.578
-350.156
-420.431
-501.543
-594.088
-697.634
-811.611
-934.877
-1064.62
-1195.59
-1322.14
-1439.52
-1546.09
-1641.03
-1711.92
-1747.06
-1752.48
-1730.28
-1682.53
-1610.49
-1519.59
-1419.21
-1306.2
-1190.45
-1082.92
-989.365
-912.518
-853.13
-807.356
-772.291
-743.275
-717.7
-694.446
-673.228
-655.291
-642.728
-637.323
-640.233
-642.984
-49.5671
-55.6138
-62.377
-70.3686
-80.1579
-93.167
-109.764
-131.303
-159.613
-195.877
-241.972
-298.723
-367.732
-449.318
-544.196
-654.025
-778.253
-915.348
-1061.52
-1210.91
-1356.73
-1494.95
-1623.96
-1738.42
-1826.05
-1879.48
-1902.67
-1897.66
-1866.98
-1811.6
-1736.85
-1645.26
-1534.31
-1412.51
-1288.5
-1170.38
-1066.98
-979.866
-910.088
-855.478
-811.933
-776.139
-745.484
-718.831
-695.67
-676.119
-661.445
-653.484
-652.854
-656.705
-37.3771
-41.5884
-46.5549
-52.9484
-61.8814
-74.2156
-91.2846
-114.661
-145.488
-186.021
-237.607
-302.447
-382.838
-479.236
-592.444
-724.175
-873.835
-1036.5
-1205.35
-1373.04
-1534.04
-1684.93
-1819.78
-1923.95
-1994.28
-2033.39
-2044.01
-2027.9
-1986.52
-1923.64
-1843.5
-1744.95
-1628.58
-1500.59
-1369.49
-1243.38
-1130.29
-1034.23
-955.715
-893.368
-843.639
-802.887
-769.134
-740.857
-717.174
-697.74
-682.919
-673.718
-670.311
-677.392
-21.0263
-23.1423
-26.4114
-31.7155