/*--------------------------------*- C++ -*----------------------------------*\
| =========                 |                                                 |
| \\      /  F ield         | OpenFOAM: The Open Source CFD Toolbox           |
|  \\    /   O peration     | Version:  v1912                                 |
|   \\  /    A nd           | Website:  www.openfoam.com                      |
|    \\/     M anipulation  |                                                 |
\*---------------------------------------------------------------------------*/
FoamFile
{
    version     2.0;
    format      ascii;
    class       surfaceScalarField;
    location    "0.27";
    object      phi;
}
// * * * * * * * * * * * * * * * * * * * * * * * * * * * * * * * * * * * * * //

dimensions      [0 3 -1 0 0 0 0];
oriented        oriented;


internalField   nonuniform List<scalar> 
13060
(
0.00573129
0.988475
-0.994207
0.00767715
0.945721
-0.947666
0.00893387
0.900169
-0.901426
0.00971637
0.856727
-0.85751
0.010162
0.816292
-0.816737
0.0101594
0.77813
-0.778128
0.00990583
0.741681
-0.741427
0.00965653
0.706499
-0.70625
0.00948328
0.672855
-0.672681
0.00920862
0.640785
-0.64051
0.00890845
0.609949
-0.609649
0.00871028
0.580445
-0.580246
0.00858279
0.55216
-0.552033
0.00848625
0.525054
-0.524958
0.00843053
0.499029
-0.498973
0.00841185
0.473995
-0.473976
0.0084134
0.45
-0.450002
0.00842292
0.426988
-0.426997
0.0084399
0.404969
-0.404986
0.00849298
0.383891
-0.383944
0.00895638
0.363424
-0.363888
0.00945222
0.344106
-0.344601
0.00956568
0.325955
-0.326068
0.0092772
0.308582
-0.308294
0.00913856
0.291566
-0.291427
0.00922192
0.275393
-0.275476
0.00917158
0.260296
-0.260246
0.00897306
0.245911
-0.245712
0.00878665
0.232186
-0.232
0.00861198
0.219271
-0.219096
0.00835398
0.207119
-0.206861
0.0080005
0.195605
-0.195252
0.0076039
0.184738
-0.184342
0.00714022
0.174519
-0.174055
0.00660118
0.164912
-0.164373
0.00602144
0.155912
-0.155333
0.00539387
0.147532
-0.146905
0.00471648
0.139722
-0.139045
0.00398443
0.132465
-0.131733
0.00322462
0.125685
-0.124925
0.002444
0.119384
-0.118603
0.00166149
0.113528
-0.112746
0.000892361
0.108064
-0.107294
0.000156334
0.103014
-0.102278
-0.000642529
0.098368
-0.0975692
-0.00134702
0.0941418
-0.0934374
-0.00208315
0.0899277
-0.0891916
-0.0025147
0.0864611
-0.0860295
-0.00203532
0.0784295
-0.0789089
0.0517936
-0.0538289
0.00580939
0.982666
0.00642516
0.945105
0.00660149
0.899993
0.00624347
0.857085
0.00590008
0.816635
0.00583862
0.778192
0.00587288
0.741646
0.00569904
0.706673
0.0053157
0.673238
0.00500545
0.641095
0.00478055
0.610174
0.00444857
0.580777
0.00410871
0.5525
0.00379501
0.525368
0.00351842
0.499305
0.00328648
0.474227
0.00310129
0.450185
0.00298439
0.427105
0.0029439
0.405009
0.00287103
0.383964
0.00240153
0.363894
0.00178735
0.34472
0.00178517
0.325957
0.00225856
0.308109
0.00245571
0.291368
0.00227026
0.275578
0.0022246
0.260342
0.0023023
0.245833
0.00224099
0.232247
0.00206305
0.219449
0.00189108
0.207291
0.00171166
0.195785
0.00145393
0.184996
0.00116359
0.174809
0.000851208
0.165224
0.000480703
0.156283
7.24503e-05
0.147941
-0.000394883
0.14019
-0.00087495
0.132945
-0.00137815
0.126188
-0.00188799
0.119894
-0.00238745
0.114028
-0.00286475
0.108541
-0.00330997
0.103459
-0.0036676
0.0987257
-0.00394536
0.0944196
-0.00421215
0.0901945
-0.00391117
0.0861601
-0.00274266
0.077261
0.0490509
0.00530616
0.97736
0.00614718
0.944264
0.00600649
0.900134
0.00513351
0.857958
0.00419851
0.81757
0.0029065
0.779484
0.00153344
0.743019
0.000499418
0.707707
-0.000366272
0.674104
-0.00130223
0.642031
-0.0021987
0.61107
-0.00288777
0.581466
-0.00344682
0.553059
-0.00391245
0.525833
-0.00427993
0.499673
-0.00456173
0.474509
-0.00479004
0.450414
-0.00499122
0.427306
-0.00517437
0.405193
-0.00523109
0.38402
-0.00479442
0.363457
-0.00418234
0.344108
-0.00427058
0.326045
-0.00470049
0.308539
-0.00472942
0.291397
-0.00445879
0.275308
-0.00443395
0.260317
-0.00453832
0.245937
-0.00452979
0.232239
-0.00447943
0.219398
-0.00451868
0.20733
-0.00462043
0.195887
-0.00471049
0.185086
-0.00484949
0.174948
-0.00503316
0.165408
-0.00522548
0.156475
-0.00543396
0.148149
-0.00565452
0.14041
-0.00588762
0.133178
-0.00610846
0.126409
-0.006306
0.120091
-0.00646321
0.114185
-0.00657394
0.108652
-0.00661704
0.103502
-0.00657568
0.0986843
-0.00642849
0.0942724
-0.00617122
0.0899372
-0.00529793
0.0852868
-0.00345937
0.0754224
0.0455916
0.00425438
0.973105
0.00337485
0.945143
0.00188525
0.901623
0.000543404
0.8593
-0.000795875
0.818909
-0.00174391
0.780432
-0.00267563
0.743951
-0.00380501
0.708836
-0.00484312
0.675142
-0.00571078
0.642899
-0.00647928
0.611839
-0.00726414
0.582251
-0.00799651
0.553791
-0.00865167
0.526489
-0.00922782
0.500249
-0.00972421
0.475005
-0.0101214
0.450811
-0.0103994
0.427584
-0.0105733
0.405366
-0.0107544
0.384201
-0.0113988
0.364102
-0.0119714
0.34468
-0.0118136
0.325888
-0.0113834
0.308109
-0.0113123
0.291326
-0.0114154
0.275411
-0.0112845
0.260186
-0.0110838
0.245737
-0.0110073
0.232162
-0.0109989
0.21939
-0.0109465
0.207278
-0.0108786
0.195819
-0.0108625
0.18507
-0.0108438
0.174929
-0.0108198
0.165384
-0.0108186
0.156474
-0.0108262
0.148157
-0.0108137
0.140398
-0.0107711
0.133135
-0.0107042
0.126342
-0.0105974
0.119984
-0.0104361
0.114023
-0.0102002
0.108416
-0.0098703
0.103172
-0.00945062
0.0982646
-0.00885266
0.0936745
-0.00817437
0.0892589
-0.00685244
0.0839648
-0.00422596
0.0727959
0.0413656
0.00322832
0.969877
0.00241469
0.945957
0.000612112
0.903426
-0.00110781
0.86102
-0.00328482
0.821086
-0.00564322
0.78279
-0.00769269
0.746001
-0.00942616
0.71057
-0.0110783
0.676794
-0.012653
0.644473
-0.0140991
0.613285
-0.0152703
0.583422
-0.0162246
0.554746
-0.0170268
0.527291
-0.0176784
0.5009
-0.0181975
0.475524
-0.0186128
0.451226
-0.0189431
0.427914
-0.0192057
0.405629
-0.0192596
0.384255
-0.0187329
0.363575
-0.0181252
0.344073
-0.0182322
0.325995
-0.0185798
0.308456
-0.0185096
0.291256
-0.0181842
0.275085
-0.018054
0.260056
-0.0179928
0.245675
-0.0177939
0.231963
-0.0175272
0.219123
-0.0173302
0.207081
-0.0171617
0.19565
-0.0169413
0.18485
-0.0167389
0.174727
-0.0165497
0.165195
-0.0163326
0.156257
-0.0160947
0.147919
-0.0158339
0.140137
-0.0155412
0.132843
-0.0151922
0.125993
-0.0147755
0.119568
-0.0142756
0.113524
-0.0136936
0.107834
-0.0130189
0.102498
-0.0122499
0.0974956
-0.0113621
0.0927866
-0.0102358
0.0881327
-0.00837801
0.0821071
-0.00498432
0.0694023
0.0363813
0.00142475
0.968452
-0.000970783
0.948352
-0.00392947
0.906384
-0.00656874
0.863659
-0.00879974
0.823317
-0.01063
0.78462
-0.0125289
0.747899
-0.0145263
0.712567
-0.0161826
0.67845
-0.017552
0.645843
-0.0187672
0.6145
-0.0199453
0.5846
-0.021025
0.555825
-0.0219681
0.528234
-0.0227794
0.501712
-0.0234648
0.476209
-0.0240205
0.451782
-0.0244282
0.428322
-0.0247146
0.405915
-0.0250365
0.384577
-0.0257887
0.364327
-0.0264541
0.344738
-0.0262034
0.325744
-0.0255852
0.307838
-0.0253819
0.291053
-0.025365
0.275069
-0.0250631
0.259754
-0.0246532
0.245265
-0.0243582
0.231668
-0.0241005
0.218865
-0.023749
0.206729
-0.0233584
0.19526
-0.0230017
0.184493
-0.0226012
0.174327
-0.0221663
0.16476
-0.021723
0.155814
-0.021255
0.147451
-0.0207375
0.139619
-0.0201538
0.132259
-0.0195105
0.125349
-0.0187983
0.118855
-0.01801
0.112735
-0.0171273
0.106951
-0.016138
0.101508
-0.015045
0.0964026
-0.0139359
0.0916775
-0.0123663
0.086563
-0.00997889
0.0797196
-0.00571874
0.0651421
0.0306625
0.000849629
0.967603
-0.00219569
0.951398
-0.00550084
0.90969
-0.00862869
0.866787
-0.0119959
0.826685
-0.0153044
0.787929
-0.018205
0.7508
-0.0207236
0.715086
-0.0231325
0.680859
-0.0253971
0.648108
-0.027404
0.616507
-0.0290199
0.586216
-0.0303652
0.557171
-0.0314981
0.529367
-0.0324097
0.502623
-0.0331284
0.476928
-0.033675
0.452328
-0.0340782
0.428725
-0.0343354
0.406173
-0.0342739
0.384516
-0.0335847
0.363638
-0.032835
0.343988
-0.0328798
0.325789
-0.0331543
0.308113
-0.0328957
0.290794
-0.0323583
0.274531
-0.0320065
0.259402
-0.031686
0.244945
-0.0312011
0.231184
-0.0306349
0.218299
-0.0301092
0.206204
-0.0295688
0.194719
-0.0289486
0.183872
-0.0283237
0.173702
-0.0276808
0.164117
-0.0269945
0.155127
-0.0262592
0.146715
-0.0254699
0.13883
-0.0246299
0.131419
-0.0237193
0.124439
-0.0227261
0.117862
-0.0216399
0.111649
-0.0204826
0.105794
-0.0192652
0.100291
-0.0179567
0.0950941
-0.0165145
0.0902354
-0.0145415
0.0845901
-0.0115317
0.0767098
-0.00637003
0.0599804
0.0242925
-0.00070261
0.968305
-0.00589848
0.956594
-0.0104858
0.914277
-0.0143657
0.870667
-0.0177528
0.830072
-0.0207352
0.790911
-0.0236573
0.753722
-0.0263482
0.717777
-0.0286401
0.683151
-0.0304946
0.649962
-0.0321261
0.618138
-0.0336982
0.587788
-0.0351165
0.558589
-0.0363301
0.53058
-0.0373656
0.503659
-0.0382266
0.477789
-0.0389075
0.453009
-0.0394078
0.429226
-0.0397735
0.406538
-0.0402197
0.384962
-0.0410445
0.364463
-0.0416395
0.344583
-0.0412391
0.325388
-0.0404066
0.30728
-0.0399819
0.29037
-0.0397007
0.27425
-0.0391155
0.258817
-0.0384093
0.244239
-0.03778
0.230554
-0.0371553
0.217675
-0.0364142
0.205463
-0.0356149
0.19392
-0.0348248
0.183082
-0.0339683
0.172845
-0.0330595
0.163208
-0.0321162
0.154184
-0.0311336
0.145733
-0.030097
0.137794
-0.0289832
0.130305
-0.0278009
0.123256
-0.026552
0.116613
-0.0252448
0.110342
-0.0238543
0.104403
-0.0223721
0.0988087
-0.0209443
0.0936663
-0.0191239
0.088415
-0.0167597
0.0822259
-0.0129813
0.0729314
-0.00691273
0.0539118
0.0173798
-0.00137321
0.969679
-0.00672728
0.961948
-0.0118163
0.919366
-0.0166159
0.875467
-0.0212896
0.834745
-0.0256556
0.795277
-0.0293885
0.757455
-0.0326824
0.721071
-0.0358542
0.686323
-0.0388316
0.652939
-0.0414465
0.620753
-0.0435535
0.589895
-0.0453154
0.560351
-0.0467878
0.532053
-0.0479616
0.504833
-0.048866
0.478694
-0.0495304
0.453674
-0.0499842
0.429679
-0.0502059
0.40676
-0.0499683
0.384724
-0.0490436
0.363538
-0.0481318
0.343672
-0.0480091
0.325266
-0.0480959
0.307367
-0.0475857
0.289859
-0.0467468
0.273411
-0.0460472
0.258117
-0.04536
0.243552
-0.0445008
0.229695
-0.0435405
0.216714
-0.0425929
0.204515
-0.0416069
0.192934
-0.0405229
0.181998
-0.0394177
0.17174
-0.0382821
0.162073
-0.0371041
0.153006
-0.0358735
0.144502
-0.0345775
0.136498
-0.0332332
0.128961
-0.031832
0.121855
-0.0303637
0.115145
-0.0288167
0.108795
-0.0272396
0.102826
-0.0256621
0.0972311
-0.0239723
0.0919765
-0.0217391
0.0861817
-0.0187671
0.0792539
-0.0139271
0.0680914
-0.00657733
0.046562
0.0108025
-0.00291544
0.972594
-0.0105382
0.96957
-0.0169338
0.925761
-0.0224506
0.880983
-0.0271508
0.839446
-0.0311819
0.799308
-0.0349657
0.761239
-0.0384614
0.724566
-0.041385
0.689246
-0.0437786
0.655333
-0.0458659
0.62284
-0.0478556
0.591885
-0.0496216
0.562117
-0.0511279
0.533559
-0.0523976
0.506102
-0.0534459
0.479742
-0.0542586
0.454486
-0.054843
0.430264
-0.0552551
0.407172
-0.0557582
0.385227
-0.0566018
0.364381
-0.0571044
0.344174
-0.0564797
0.324641
-0.055346
0.306233
-0.054582
0.289095
-0.0539801
0.272809
-0.0530554
0.257193
-0.051952
0.242448
-0.0508985
0.228641
-0.0498368
0.215653
-0.0486428
0.203321
-0.0473774
0.191669
-0.0461149
0.180736
-0.0447841
0.170409
-0.0434009
0.160689
-0.0419781
0.151583
-0.040515
0.143039
-0.0390152
0.134998
-0.0374545
0.1274
-0.0358331
0.120234
-0.0341564
0.113468
-0.0324541
0.107092
-0.0306992
0.101071
-0.0290011
0.095533
-0.0269089
0.0898843
-0.0243713
0.0836442
-0.0205637
0.0754463
-0.0141526
0.0616803
-0.00502883
0.0374383
0.00577363
-0.00447791
0.977072
-0.0115754
0.976668
-0.0181702
0.932356
-0.024496
0.887309
-0.0303937
0.845343
-0.0357898
0.804705
-0.0404684
0.765917
-0.0445817
0.72868
-0.0484185
0.693083
-0.0520963
0.659011
-0.0553489
0.626093
-0.0579987
0.594534
-0.0602267
0.564345
-0.0620802
0.535412
-0.0635491
0.507571
-0.0646582
0.480851
-0.0654453
0.455273
-0.0659434
0.430762
-0.066119
0.407348
-0.065714
0.384822
-0.0645453
0.363213
-0.0633842
0.343013
-0.0630044
0.324261
-0.0628584
0.306087
-0.0620691
0.288306
-0.0608489
0.271589
-0.0597266
0.25607
-0.0586329
0.241355
-0.0573544
0.227363
-0.0559462
0.214244
-0.054534
0.201909
-0.0530838
0.190218
-0.0515333
0.179185
-0.0499598
0.168836
-0.0483648
0.159094
-0.0467456
0.149964
-0.0450926
0.141386
-0.0433793
0.133284
-0.0416294
0.12565
-0.0398469
0.118451
-0.0380269
0.111648
-0.0361423
0.105208
-0.0343733
0.0993024
-0.0323882
0.0935479
-0.0299318
0.0874278
-0.0266741
0.0803865
-0.021631
0.0704032
-0.0136579
0.0537073
-0.00316836
0.0269487
0.00260527
-0.0060502
0.983122
-0.0154245
0.986042
-0.0230791
0.940011
-0.0298801
0.89411
-0.0356738
0.851137
-0.0407994
0.80983
-0.0455183
0.770636
-0.0498031
0.732964
-0.053436
0.696716
-0.0564206
0.661995
-0.0590398
0.628712
-0.0615044
0.596999
-0.0636866
0.566527
-0.0655423
0.537268
-0.0671135
0.509142
-0.0684019
0.482139
-0.0693912
0.456263
-0.0700945
0.431465
-0.070575
0.407828
-0.0711255
0.385373
-0.0719761
0.364063
-0.0723771
0.343414
-0.0715161
0.3234
-0.0699905
0.304562
-0.0687972
0.287113
-0.0678268
0.270618
-0.066531
0.254775
-0.0649892
0.239813
-0.063476
0.22585
-0.0619621
0.21273
-0.0603119
0.200259
-0.058581
0.188488
-0.056867
0.177471
-0.0551066
0.167075
-0.0533127
0.1573
-0.0514934
0.148145
-0.0496373
0.13953
-0.0477697
0.131417
-0.0458765
0.123757
-0.0439447
0.11652
-0.0419635
0.109667
-0.0400881
0.103333
-0.0381484
0.0973627
-0.035768
0.0911675
-0.0328478
0.0845076
-0.0287057
0.0762444
-0.0221724
0.06387
-0.0125132
0.044048
-0.00192866
0.0163642
0.000676611
-0.00682455
0.989947
-0.0156528
0.994871
-0.0235014
0.947859
-0.0311444
0.901753
-0.0380059
0.857999
-0.0443541
0.816178
-0.0499513
0.776233
-0.0549712
0.737984
-0.0596624
0.701407
-0.0641242
0.666457
-0.0681146
0.632703
-0.0714256
0.60031
-0.0742405
0.569342
-0.0765964
0.539624
-0.0784547
0.511001
-0.0798566
0.483541
-0.0808379
0.457244
-0.0814332
0.43206
-0.0816004
0.407995
-0.0810697
0.384842
-0.0796738
0.362667
-0.0782322
0.341973
-0.0775626
0.32273
-0.0772045
0.304204
-0.0761455
0.286054
-0.0745021
0.268975
-0.072914
0.253186
-0.0713923
0.238291
-0.0696954
0.224153
-0.0678307
0.210866
-0.0659566
0.198385
-0.0640784
0.186609
-0.0621129
0.175506
-0.0601357
0.165098
-0.0581614
0.155326
-0.0561821
0.146165
-0.0542033
0.137551
-0.0521909
0.129404
-0.0501526
0.121719
-0.0480996
0.114467
-0.0461378
0.107705
-0.0442016
0.101396
-0.0419288
0.0950899
-0.0393235
0.0885622
-0.0359006
0.0810847
-0.0306435
0.0709873
-0.0220669
0.0552934
-0.00966521
0.0316463
-0.00116693
0.00786593
-0.000490316
-0.00830483
0.998251
-0.0188022
1.00537
-0.0276358
0.956693
-0.0354604
0.909578
-0.0422368
0.864775
-0.0482794
0.822221
-0.0539239
0.781878
-0.0590767
0.743137
-0.0634985
0.705829
-0.0672136
0.670172
-0.0705518
0.636041
-0.0736649
0.603423
-0.0764255
0.572103
-0.0787909
0.541989
-0.0808178
0.513028
-0.0824916
0.485215
-0.0837951
0.458548
-0.0847251
0.43299
-0.0853528
0.408623
-0.0859767
0.385466
-0.0868391
0.36353
-0.0871821
0.342316
-0.0861491
0.321697
-0.0842336
0.302288
-0.0825996
0.28442
-0.0812512
0.267627
-0.0795862
0.251521
-0.0776073
0.236312
-0.0756173
0.222163
-0.0736584
0.208907
-0.0715871
0.196313
-0.0694269
0.184449
-0.0673133
0.173392
-0.065192
0.162977
-0.0630678
0.153202
-0.0609556
0.144053
-0.0588182
0.135414
-0.0566866
0.127273
-0.05457
0.119602
-0.0525193
0.112416
-0.0505465
0.105733
-0.0483576
0.0992074
-0.0458858
0.0926182
-0.0428166
0.085493
-0.0383167
0.0765848
-0.0307777
0.0634483
-0.0192457
0.0437613
-0.00586807
0.0182687
-0.000708775
0.00270664
-0.00119909
-0.00736293
1.00561
-0.0177126
1.01572
-0.0266314
0.965612
-0.0351543
0.918101
-0.0429039
0.872525
-0.0501443
0.829461
-0.0566429
0.788377
-0.062529
0.749023
-0.0681569
0.711457
-0.0735932
0.675609
-0.0785243
0.640972
-0.0827295
0.607628
-0.0863884
0.575762
-0.0894892
0.54509
-0.0919721
0.515511
-0.093885
0.487128
-0.0952498
0.459912
-0.0961119
0.433852
-0.0964137
0.408925
-0.0959206
0.384973
-0.094418
0.362027
-0.0927138
0.340611
-0.0917397
0.320723
-0.0911631
0.301711
-0.089894
0.283151
-0.0878792
0.265612
-0.0858315
0.249474
-0.0838683
0.234349
-0.0817638
0.220058
-0.0794495
0.206593
-0.0771223
0.193986
-0.0748566
0.182184
-0.0725344
0.17107
-0.0702279
0.16067
-0.0679659
0.15094
-0.0657081
0.141795
-0.0634853
0.133191
-0.0612867
0.125074
-0.0591367
0.117452
-0.0571006
0.11038
-0.0549389
0.103571
-0.0525485
0.0968171
-0.0497064
0.089776
-0.0457234
0.08151
-0.0390974
0.0699588
-0.0284371
0.0527881
-0.0133955
0.0287196
-0.00297007
0.00784326
-0.000154566
-0.000108866
-0.00135366
-0.00884418
1.01446
-0.0195177
1.02639
-0.0289567
0.975051
-0.0375776
0.926722
-0.0451002
0.880047
-0.052081
0.836442
-0.0586109
0.794906
-0.0647757
0.755188
-0.0702022
0.716884
-0.0748642
0.68027
-0.0791607
0.645268
-0.0832372
0.611705
-0.0868693
0.579394
-0.0900488
0.54827
-0.0928314
0.518293
-0.0951616
0.489458
-0.0970243
0.461775
-0.0984078
0.435236
-0.0993781
0.409895
-0.100187
0.385781
-0.101145
0.362986
-0.101593
0.341059
-0.100577
0.319707
-0.0983926
0.299527
-0.0962757
0.281034
-0.094526
0.263862
-0.0925206
0.247468
-0.0901404
0.231969
-0.0876599
0.217578
-0.0852465
0.204179
-0.0827759
0.191515
-0.0802138
0.179621
-0.0777347
0.168591
-0.0753056
0.158241
-0.0728981
0.148532
-0.0705597
0.139457
-0.06825
0.130881
-0.065994
0.122818
-0.0638844
0.115343
-0.06172
0.108215
-0.0593539
0.101205
-0.0566312
0.0940943
-0.052974
0.0861188
-0.0469299
0.0754659
-0.0368568
0.0598857
-0.0215753
0.0375066
-0.00711417
0.0142585
-0.00140089
0.00212998
1.82422e-05
-0.001528
-0.00133541
-0.00719575
1.02165
-0.0172722
1.03647
-0.0261973
0.983976
-0.0350655
0.93559
-0.0432683
0.88825
-0.0513544
0.844528
-0.058866
0.802418
-0.0657937
0.762116
-0.0725906
0.723681
-0.07927
0.68695
-0.085412
0.65141
-0.0908291
0.617122
-0.0956933
0.584258
-0.0999117
0.552488
-0.103406
0.521787
-0.106199
0.492252
-0.108305
0.463882
-0.109759
0.436689
-0.11051
0.410646
-0.110354
0.385626
-0.108998
0.361631
-0.107105
0.339166
-0.105833
0.318435
-0.105026
0.29872
-0.103685
0.279692
-0.101423
0.261601
-0.0988859
0.244931
-0.096434
0.229517
-0.0939219
0.215066
-0.0911605
0.201418
-0.088347
0.188702
-0.085679
0.176953
-0.0830183
0.16593
-0.0804019
0.155625
-0.0779017
0.146032
-0.0754396
0.136995
-0.0730471
0.128489
-0.0708156
0.120586
-0.0685943
0.113121
-0.066192
0.105813
-0.0634968
0.0985096
-0.0599979
0.0905954
-0.0543708
0.0804917
-0.0448147
0.0659098
-0.0295687
0.0446396
-0.0124796
0.0204176
-0.00322243
0.00500136
-0.00035788
-0.000734567
0.000159079
-0.00204496
-0.00117633
-0.00667403
1.02833
-0.0167882
1.04658
-0.026164
0.993352
-0.0350575
0.944483
-0.0431183
0.896311
-0.0507575
0.852167
-0.0581732
0.809834
-0.0654916
0.769434
-0.0721493
0.730338
-0.0781018
0.692902
-0.0837272
0.657036
-0.0891689
0.622564
-0.0941009
0.58919
-0.0985408
0.556928
-0.102493
0.52574
-0.10591
0.495668
-0.108735
0.466707
-0.110922
0.438877
-0.112528
0.412253
-0.113758
0.386855
-0.115007
0.36288
-0.115862
0.340021
-0.115163
0.317737
-0.112909
0.296466
-0.110317
0.2771
-0.108075
0.259359
-0.105773
0.242629
-0.103028
0.226772
-0.0999909
0.212029
-0.0970293
0.198456
-0.0941397
0.185812
-0.0911599
0.173973
-0.0882728
0.163043
-0.0855311
0.152883
-0.0828413
0.143342
-0.0802585
0.134412
-0.0778819
0.126112
-0.0755649
0.118269
-0.0730993
0.110656
-0.0703754
0.103089
-0.0669558
0.0950901
-0.061678
0.0853176
-0.0524954
0.0713091
-0.0368979
0.0503123
-0.0180857
0.0258274
-0.00559079
0.00792268
-0.00103306
0.000443626
0.000220812
-0.00198844
0.000236039
-0.00206018
-0.000940296
-0.00488431
1.03321
-0.0127125
1.05441
-0.0210203
1.00166
-0.0296538
0.953117
-0.0381873
0.904844
-0.0469732
0.860953
-0.0553933
0.818254
-0.0633996
0.77744
-0.0715494
0.738488
-0.0797329
0.701086
-0.0873776
0.66468
-0.0944433
0.629629
-0.100998
0.595745
-0.106885
0.562815
-0.111966
0.53082
-0.11619
0.499892
-0.119571
0.470088
-0.122134
0.44144
-0.123832
0.413951
-0.124475
0.387498
-0.123699
0.362103
-0.121825
0.338147
-0.120201
0.316113
-0.119198
0.295463
-0.117904
0.275806
-0.115572
0.257028
-0.112536
0.239592
-0.109466
0.223702
-0.106478
0.20904
-0.10327
0.195248
-0.0998866
0.182429
-0.0966881
0.170775
-0.0936177
0.159973
-0.0906149
0.14988
-0.0878253
0.140553
-0.0851879
0.131775
-0.0826205
0.123545
-0.0800237
0.115673
-0.0772244
0.107857
-0.0738169
0.0996817
-0.0687035
0.0899766
-0.059746
0.0763602
-0.0435353
0.0550984
-0.0234222
0.0301992
-0.00861072
0.0110159
-0.00239794
0.00170991
-0.000270131
-0.00168419
0.000250386
-0.00250895
0.000177826
-0.00198762
-0.00076247
-0.00204899
1.03526
-0.0105847
1.06295
-0.0190446
1.01012
-0.0272646
0.961337
-0.0353247
0.912904
-0.0433472
0.868976
-0.0514513
0.826358
-0.0599204
0.785909
-0.0679408
0.746509
-0.0754441
0.708589
-0.0828469
0.672083
-0.0900538
0.636836
-0.0967925
0.602483
-0.103037
0.56906
-0.108785
0.536568
-0.113913
0.50502
-0.118287
0.474462
-0.121838
0.44499
-0.124555
0.416668
-0.126622
0.389565
-0.128481
0.363962
-0.130062
0.339729
-0.130081
0.316132
-0.128206
0.293587
-0.125284
0.272885
-0.122431
0.254174
-0.119709
0.23687
-0.116616
0.220609
-0.112989
0.205413
-0.109271
0.191531
-0.105802
0.17896
-0.102325
0.167297
-0.0988605
0.156509
-0.0956825
0.146702
-0.0926928
0.137563
-0.0897734
0.128855
-0.0869358
0.120707
-0.083995
0.112732
-0.0804958
0.104357
-0.0753586
0.0945444
-0.0663651
0.0809831
-0.049564
0.059559
-0.0282957
0.0338301
-0.012008
0.0139115
-0.00429164
0.00329951
-0.00152258
-0.00105916
-0.000602272
-0.00260449
-0.000238055
-0.00287317
-4.66582e-05
-0.00217902
-0.000809128
0.000841748
1.03442
-0.00490109
1.06869
-0.0115334
1.01675
-0.0192385
0.969042
-0.0273546
0.92102
-0.0363793
0.878001
-0.0454691
0.835448
-0.0544908
0.794931
-0.0639605
0.755978
-0.0737231
0.718352
-0.0831475
0.681508
-0.0921938
0.645883
-0.100905
0.611194
-0.109022
0.577177
-0.116342
0.543888
-0.122717
0.511395
-0.128133
0.479878
-0.132504
0.449362
-0.135802
0.419966
-0.137892
0.391655
-0.138329
0.364399
-0.136942
0.338342
-0.135152
0.314341
-0.133986
0.292422
-0.132735
0.271633
-0.130561
0.252001
-0.127235
0.233543
-0.12339
0.216765
-0.119654
0.201676
-0.115943
0.18782
-0.111927
0.174945
-0.107904
0.163273
-0.104248
0.152853
-0.100706
0.143161
-0.097305
0.134162
-0.0940549
0.125605
-0.090798
0.11745
-0.0869951
0.108929
-0.0815857
0.098948
-0.072335
0.0852937
-0.0550425
0.0636907
-0.0324945
0.037011
-0.0150823
0.0164179
-0.0061199
0.00494912
-0.00262866
-0.000191734
-0.0013784
-0.00230941
-0.000830071
-0.00315282
-0.000498521
-0.00320472
-0.000204314
-0.00247323
-0.00101344
0.00253406
1.03189
-0.00202637
1.07325
-0.0079812
1.02271
-0.0147046
0.975765
-0.0220802
0.928396
-0.0299554
0.885876
-0.0383526
0.843845
-0.0475895
0.804168
-0.0567997
0.765189
-0.0659141
0.727466
-0.0753701
0.690964
-0.0847354
0.655248
-0.0936469
0.620106
-0.102197
0.585727
-0.110326
0.552017
-0.117881
0.51895
-0.124548
0.486545
-0.130215
0.455028
-0.134809
0.42456
-0.138387
0.395233
-0.141312
0.367325
-0.143944
0.340974
-0.145304
0.315701
-0.144394
0.291512
-0.141624
0.268864
-0.138114
0.248491
-0.134654
0.230084
-0.13112
0.213231
-0.127036
0.197593
-0.122433
0.183216
-0.117971
0.170483
-0.113802
0.159103
-0.109653
0.148705
-0.105563
0.13907
-0.101613
0.130212
-0.0977989
0.121791
-0.0934546
0.113106
-0.0875018
0.102976
-0.0777179
0.0891641
-0.059739
0.0673148
-0.0360272
0.0399789
-0.0170928
0.0180766
-0.00676115
0.00608628
-0.00221696
0.000404928
-0.000410814
-0.00199788
0.000198278
-0.00291851
0.000202898
-0.00315744
4.8027e-06
-0.00300663
-9.18507e-05
-0.00237657
-0.00110529
0.00758552
1.0243
0.00506034
1.07577
0.00104232
1.02672
-0.00494519
0.981753
-0.0120757
0.935526
-0.0205595
0.89436
-0.0296509
0.852936
-0.0391902
0.813707
-0.0496082
0.775607
-0.060677
0.738535
-0.0717832
0.70207
-0.082931
0.666396
-0.0940897
0.631264
-0.104869
0.596507
-0.114909
0.562056
-0.124145
0.528186
-0.132418
0.494818
-0.139536
0.462147
-0.145352
0.430375
-0.149693
0.399574
-0.152211
0.369842
-0.152285
0.341048
-0.150959
0.314375
-0.149659
0.290212
-0.148319
0.267523
-0.146408
0.246579
-0.143273
0.226949
-0.138853
0.208811
-0.133958
0.192698
-0.129317
0.178575
-0.124699
0.165866
-0.119837
0.154242
-0.114947
0.143816
-0.110187
0.13431
-0.105476
0.125501
-0.10032
0.116635
-0.0935448
0.106331
-0.0828288
0.0922602
-0.0637267
0.070062
-0.0384448
0.0420329
-0.0175193
0.0190534
-0.00525713
0.0058144
0.000979692
-0.000150546
0.0037304
-0.00234578
0.00453104
-0.00279852
0.0042135
-0.00260097
0.00315182
-0.00209576
0.00175305
-0.00160786
0.000537009
-0.00116053
-0.000568283
0.00736049
1.01694
0.00710273
1.07603
0.00450106
1.02933
0.000139893
0.986114
-0.00564056
0.941307
-0.0123797
0.901099
-0.020285
0.860841
-0.0296278
0.82305
-0.0394573
0.785436
-0.0497615
0.748839
-0.0608619
0.71317
-0.0722461
0.67778
-0.0836552
0.642674
-0.0949945
0.607846
-0.105983
0.573045
-0.116413
0.538615
-0.126176
0.504581
-0.134841
0.470812
-0.142189
0.437723
-0.148191
0.405576
-0.152991
0.374643
-0.157278
0.345335
-0.160593
0.31769
-0.161261
0.29088
-0.159545
0.265807
-0.155987
0.243021
-0.151535
0.222497
-0.147053
0.204329
-0.142484
0.188129
-0.137294
0.173385
-0.131616
0.160188
-0.125935
0.148561
-0.120432
0.138312
-0.114738
0.128616
-0.108471
0.119234
-0.100384
0.108547
-0.0879571
0.0939041
-0.0668445
0.0711477
-0.0395061
0.0427235
-0.0159479
0.0184748
-0.00100833
0.00411375
0.00690116
-0.00209509
0.0104518
-0.00370122
0.0113502
-0.00324417
0.0107213
-0.00216957
0.00901387
-0.000893563
0.0066284
0.00028971
0.00392247
0.00109808
0.00141364
0.0013483
0.000845357
0.0147645
1.00218
0.015371
1.07543
0.0144879
1.03021
0.0103629
0.990239
0.00516661
0.946503
-0.00188902
0.908155
-0.0102577
0.86921
-0.0194005
0.832193
-0.0299004
0.795936
-0.0415115
0.76045
-0.0537255
0.725384
-0.0666119
0.690666
-0.0799917
0.656053
-0.0933906
0.621245
-0.106577
0.586232
-0.119192
0.551229
-0.130871
0.516261
-0.141597
0.481538
-0.150909
0.447035
-0.158537
0.413204
-0.164154
0.38026
-0.167107
0.348288
-0.167258
0.317841
-0.166358
0.28998
-0.165151
0.2646
-0.163272
0.241142
-0.160424
0.219649
-0.156355
0.20026
-0.150812
0.182586
-0.144381
0.166954
-0.138299
0.154106
-0.132243
0.142505
-0.125436
0.131504
-0.1177
0.12088
-0.107774
0.109308
-0.0930526
0.0938258
-0.0686849
0.0695364
-0.038994
0.0414568
-0.0131431
0.0168726
0.00358452
0.00174717
0.0121396
-0.00444135
0.0153409
-0.00529638
0.0159312
-0.00429152
0.0152847
-0.00259768
0.013677
-0.000561812
0.0112343
0.00154914
0.00824242
0.00328156
0.00498693
0.00435358
0.00189332
0.0044419
0.00273868
0.0117203
0.990455
0.0147957
1.07235
0.0155969
1.02941
0.0143328
0.991503
0.0113029
0.949533
0.00652187
0.912936
0.000213766
0.875518
-0.00809975
0.840506
-0.0174788
0.805315
-0.0280281
0.771
-0.0398806
0.737237
-0.0525388
0.703325
-0.0658616
0.669376
-0.0797439
0.635127
-0.0938115
0.600299
-0.107661
0.565078
-0.120865
0.529464
-0.133114
0.493788
-0.144129
0.458051
-0.153759
0.422834
-0.161622
0.388123
-0.168341
0.355007
-0.174134
0.323633
-0.177469
0.293315
-0.177611
0.264742
-0.175135
0.238666
-0.170876
0.21539
-0.165024
0.194408
-0.158852
0.176413
-0.153046
0.161149
-0.146392
0.147452
-0.138198
0.134311
-0.128387
0.121693
-0.115907
0.108401
-0.0980215
0.0914227
-0.0699926
0.0657968
-0.037691
0.0372348
-0.0116385
0.0154043
0.00430503
0.000929089
0.0120782
-0.00602605
0.0150174
-0.00738045
0.0158048
-0.0060838
0.0153702
-0.00385694
0.0140624
-0.00128988
0.0121148
0.00138572
0.009758
0.00390599
0.00702958
0.00600998
0.0040972
0.00728596
0.00145439
0.0070847
0.00419307
0.019988
0.970467
0.0237476
1.06859
0.025431
1.02772
0.0236261
0.993308
0.0207046
0.952454
0.016028
0.917612
0.00987829
0.881668
0.00235215
0.848032
-0.00707665
0.814744
-0.0181089
0.782032
-0.030301
0.749429
-0.0439052
0.716929
-0.0586224
0.684093
-0.0740447
0.650549
-0.0899804
0.616235
-0.105945
0.581044
-0.121472
0.544991
-0.136205
0.508521
-0.149739
0.471584
-0.161649
0.434744
-0.171602
0.398076
-0.178813
0.362217
-0.182154
0.326975
-0.183056
0.294216
-0.182757
0.264444
-0.180888
0.236797
-0.177799
0.212301
-0.174292
0.190901
-0.169331
0.171452
-0.161936
0.153753
-0.152057
0.137573
-0.139709
0.121963
-0.124263
0.106247
-0.101199
0.0853368
-0.0695704
0.0597942
-0.0365329
0.0327593
-0.0140631
0.0147651
-0.00162147
0.00296263
0.00280658
-0.00349896
0.00379183
-0.00701131
0.00459407
-0.00818268
0.00557441
-0.00706414
0.00614451
-0.00442703
0.00594275
-0.00108813
0.00537167
0.0019568
0.00439227
0.00488539
0.0029819
0.00742034
0.00146657
0.00880129
0.000327511
0.00822376
0.00452059
0.0133536
0.957113
0.0201322
1.06181
0.0231725
1.02468
0.025113
0.991368
0.0251555
0.952412
0.0231055
0.919662
0.0191634
0.88561
0.013089
0.854107
0.00552647
0.822306
-0.00386429
0.791423
-0.0150974
0.760662
-0.0276831
0.729514
-0.0417651
0.698175
-0.0571894
0.665974
-0.0736505
0.632696
-0.0907879
0.598181
-0.107749
0.561952
-0.123843
0.524615
-0.139121
0.486861
-0.152937
0.44856
-0.16522
0.410359
-0.175507
0.372504
-0.184552
0.336021
-0.191709
0.301373
-0.194906
0.267641
-0.194726
0.236617
-0.192043
0.209618
-0.187014
0.185872
-0.178679
0.163117
-0.167091
0.142165
-0.152683
0.123165
-0.13227
0.101549
-0.103271
0.0772484
-0.0703545
0.0524202
-0.0420105
0.0314501
-0.0248703
0.0156191
-0.0162898
0.00618456
-0.0120791
-0.00124805
-0.00986577
-0.00571232
-0.00786542
-0.00901166
-0.00561532
-0.0104328
-0.00332027
-0.00935919
-0.00140169
-0.00634561
-0.000357964
-0.00213185
-8.57416e-05
0.00168458
-0.000194183
0.00499383
-0.00049874
0.00772489
-0.000630608
0.00893316
-0.000490673
0.00808383
0.00402991
0.0203805
0.936733
0.0294513
1.05274
0.0312438
1.02289
0.0319932
0.990618
0.0317363
0.952669
0.0299627
0.921436
0.0268546
0.888718
0.0220144
0.858947
0.0147661
0.829555
0.00574062
0.800448
-0.00503928
0.771442
-0.0177748
0.74225
-0.0321224
0.712523
-0.0484177
0.682269
-0.0661599
0.650439
-0.0850713
0.617092
-0.104161
0.581042
-0.122951
0.543405
-0.141165
0.505075
-0.157844
0.465239
-0.172852
0.425367
-0.185821
0.385473
-0.194773
0.344973
-0.198865
0.305465
-0.200842
0.269618
-0.20112
0.236894
-0.198075
0.206574
-0.190122
0.177919
-0.178866
0.151862
-0.16045
0.12375
-0.135485
0.0982008
-0.104164
0.0702275
-0.0761139
0.0491984
-0.0547236
0.0310299
-0.0407066
0.0174331
-0.0325105
0.00742308
-0.026826
0.000500052
-0.0225153
-0.00555876
-0.0187676
-0.00946007
-0.0157445
-0.0120347
-0.0131221
-0.0130552
-0.0102555