/*--------------------------------*- C++ -*----------------------------------*\
| =========                 |                                                 |
| \\      /  F ield         | OpenFOAM: The Open Source CFD Toolbox           |
|  \\    /   O peration     | Version:  v1912                                 |
|   \\  /    A nd           | Website:  www.openfoam.com                      |
|    \\/     M anipulation  |                                                 |
\*---------------------------------------------------------------------------*/
FoamFile
{
    version     2.0;
    format      ascii;
    class       volVectorField;
    location    "0.27";
    object      U;
}
// * * * * * * * * * * * * * * * * * * * * * * * * * * * * * * * * * * * * * //

dimensions      [0 1 -1 0 0 0 0];


internalField   nonuniform List<vector> 
6600
(
(39.8409 -0.0395733 0)
(40.0975 -0.0606824 1.88727e-20)
(40.1639 0.0221605 1.32432e-18)
(40.1929 0.114994 0)
(40.2281 0.222888 1.63825e-18)
(40.2671 0.359688 5.61895e-20)
(40.3094 0.5248 -6.23778e-20)
(40.3226 0.703354 -7.05498e-20)
(40.3328 0.882538 1.44472e-18)
(40.3287 1.07464 -1.48739e-19)
(40.287 1.29105 0)
(40.2415 1.51296 -1.90426e-18)
(40.1875 1.74121 0)
(40.1118 1.98066 -2.2559e-18)
(40.0163 2.23211 -3.10505e-18)
(39.8966 2.49151 -1.70252e-18)
(39.7562 2.76368 0)
(39.5969 3.04692 0)
(39.4268 3.34415 3.04453e-18)
(39.2519 3.65684 -2.99571e-18)
(39.0633 3.97862 -4.39767e-19)
(38.8314 4.25348 -1.63544e-18)
(38.6107 4.54968 -3.16865e-18)
(38.357 4.93558 7.45895e-19)
(38.0057 5.37759 2.6578e-18)
(37.6576 5.75778 0)
(37.3636 6.14944 7.00459e-18)
(37.0066 6.61186 0)
(36.6038 7.09041 -3.81654e-18)
(36.2316 7.57987 -2.61389e-18)
(35.8771 8.09753 -2.6141e-19)
(35.4643 8.66081 -3.41403e-18)
(35.0376 9.25768 -1.35078e-18)
(34.634 9.88674 3.02159e-18)
(34.2049 10.5755 2.75139e-19)
(33.7729 11.3025 3.8613e-18)
(33.3735 12.0876 6.98695e-18)
(32.9803 12.9317 7.56436e-18)
(32.598 13.8451 -5.70539e-18)
(32.239 14.8268 6.29827e-18)
(31.904 15.8782 3.5202e-18)
(31.5885 17.0047 0)
(31.3096 18.2033 -1.81039e-18)
(31.0868 19.5064 4.10961e-18)
(30.9169 20.8798 0)
(30.8274 22.3972 1.63829e-18)
(30.7535 23.89 3.46524e-18)
(30.9072 25.7398 0)
(29.2995 26.3448 0)
(20.6139 19.727 4.58467e-19)
(39.7346 -0.0560527 1.10834e-18)
(40.1671 -0.0604903 -1.16836e-18)
(40.2184 0.0731435 0)
(40.2502 0.203613 -2.21765e-20)
(40.281 0.347007 1.56135e-18)
(40.3139 0.510775 5.44886e-20)
(40.3484 0.657779 3.42088e-22)
(40.3747 0.821254 -6.77464e-20)
(40.3877 1.0082 0)
(40.3862 1.21697 -2.68956e-18)
(40.3852 1.42107 -9.77556e-20)
(40.3769 1.64797 1.77353e-18)
(40.3435 1.89085 1.90835e-18)
(40.2977 2.14674 1.2748e-18)
(40.2279 2.41767 -7.54276e-21)
(40.1358 2.69854 1.98556e-19)
(40.0215 2.99373 -1.85595e-18)
(39.8814 3.29939 0)
(39.7144 3.61223 0)
(39.511 3.93748 3.09138e-18)
(39.2703 4.26227 4.55211e-19)
(39.0563 4.72543 -2.54228e-18)
(38.7893 5.14486 -2.37912e-18)
(38.4796 5.47563 -2.7795e-18)
(38.1965 5.80971 -2.39461e-18)
(37.9189 6.26702 -9.4458e-19)
(37.5732 6.72983 -1.15687e-18)
(37.2248 7.15806 -1.27756e-18)
(36.9012 7.63789 3.87624e-18)
(36.5531 8.16157 2.33909e-19)
(36.169 8.7055 -5.12215e-18)
(35.803 9.2732 4.74976e-18)
(35.4447 9.88335 3.85777e-18)
(35.0539 10.5299 -4.56624e-18)
(34.6754 11.2056 2.76556e-19)
(34.3201 11.939 -3.94902e-18)
(33.9612 12.7182 4.01251e-18)
(33.6347 13.5552 -2.59314e-18)
(33.3443 14.4461 -2.44952e-18)
(33.0705 15.3978 -2.8083e-18)
(32.8324 16.4156 0)
(32.6389 17.5035 0)
(32.4841 18.653 -1.5437e-18)
(32.3714 19.879 1.62664e-18)
(32.3452 21.165 3.03628e-18)
(32.4271 22.5884 -1.69143e-18)
(32.5396 23.9959 -2.3562e-18)
(32.7814 25.6096 0)
(31.0692 25.7987 -1.04309e-19)
(21.2069 18.6469 -3.03198e-19)
(39.6501 -0.0169028 -5.21529e-20)
(40.2859 -0.0778597 1.19249e-18)
(40.3353 0.0730356 1.2246e-18)
(40.3847 0.206132 -2.75144e-22)
(40.4323 0.367134 -1.47498e-19)
(40.4795 0.548576 5.23982e-20)
(40.5263 0.77299 0)
(40.5446 0.984733 0)
(40.5609 1.20654 0)
(40.5642 1.43775 1.4509e-18)
(40.5228 1.69664 -9.40257e-20)
(40.4806 1.95799 -1.78536e-18)
(40.4294 2.22569 -9.43734e-19)
(40.3563 2.50476 2.18487e-18)
(40.2628 2.79476 1.32404e-18)
(40.1456 3.09227 -2.01723e-19)
(40.0098 3.40285 3.89867e-18)
(39.8556 3.72669 -2.10759e-18)
(39.6936 4.06497 -2.46741e-18)
(39.5311 4.42671 0)
(39.3555 4.78348 -1.69267e-18)
(39.1228 5.05373 2.05912e-18)
(38.9313 5.41654 2.40764e-18)
(38.7088 5.88048 2.81455e-18)
(38.3763 6.34638 2.46383e-18)
(38.0549 6.73766 -4.3461e-19)
(37.7933 7.17542 -5.32579e-19)
(37.4727 7.67915 -1.81079e-18)
(37.1101 8.18279 -7.14099e-19)
(36.7903 8.69881 2.5947e-18)
(36.499 9.24393 9.4505e-19)
(36.1506 9.83307 0)
(35.8006 10.4452 -4.97178e-18)
(35.4899 11.0868 1.41326e-18)
(35.1595 11.7801 3.1569e-18)
(34.8398 12.5017 5.10055e-18)
(34.5663 13.2757 -2.169e-18)
(34.3193 14.0946 -2.14792e-18)
(34.0955 14.964 3.13023e-19)
(33.914 15.8875 0)
(33.7777 16.8628 -2.37885e-18)
(33.684 17.8914 0)
(33.6541 18.9667 0)
(33.7091 20.1252 -2.58923e-18)
(33.8498 21.3254 -1.39525e-18)
(34.0853 22.6226 6.9673e-19)
(34.3804 23.9811 9.03679e-19)
(34.6423 25.2481 0)
(32.6189 25.0047 -4.43524e-19)
(21.4005 17.2289 4.31281e-19)
(39.6058 -0.0126304 -1.06374e-18)
(40.4224 -0.0305819 8.44738e-21)
(40.4423 0.191869 -1.25854e-18)
(40.4761 0.341771 -1.23568e-18)
(40.513 0.526623 -1.45299e-18)
(40.5505 0.721387 -7.40512e-19)
(40.6008 0.898996 -5.51826e-20)
(40.6285 1.11693 0)
(40.6396 1.3411 1.08328e-18)
(40.6388 1.58442 1.31346e-18)
(40.6351 1.82595 -8.97553e-20)
(40.6266 2.08752 -1.06668e-19)
(40.5905 2.36558 -8.70581e-19)
(40.5435 2.65655 -1.97889e-19)
(40.4737 2.96172 9.90793e-20)
(40.3805 3.27714 -1.95227e-19)
(40.2677 3.60692 1.40573e-19)
(40.1278 3.94704 2.39003e-18)
(39.9634 4.29312 3.38127e-18)
(39.765 4.65278 0)
(39.5345 5.01852 7.15961e-20)
(39.3276 5.5165 0)
(39.0674 5.94964 0)
(38.7849 6.30548 -6.85211e-19)
(38.5377 6.69443 2.28176e-18)
(38.2785 7.19145 2.31598e-18)
(37.9632 7.67283 -5.14608e-19)
(37.6619 8.1274 2.48905e-18)
(37.3901 8.63692 0)
(37.094 9.1854 0)
(36.7722 9.7514 1.75595e-18)
(36.4864 10.3318 0)
(36.2129 10.9547 1.26089e-18)
(35.9151 11.6074 2.62307e-18)
(35.6483 12.2799 -4.53633e-18)
(35.4141 13.004 -5.02161e-18)
(35.192 13.7576 5.19084e-18)
(35.0208 14.5615 -1.94196e-18)
(34.8962 15.401 2.18517e-19)
(34.8061 16.2819 2.56189e-19)
(34.7698 17.2065 4.4152e-18)
(34.7976 18.1773 0)
(34.8861 19.1826 0)
(35.0325 20.2281 1.13698e-18)
(35.2921 21.3067 5.42829e-19)
(35.6597 22.482 -4.9672e-19)
(36.0605 23.6971 -2.35575e-19)
(36.2194 24.678 2.60157e-19)
(33.7088 23.9038 1.24173e-18)
(21.0883 15.4956 0)
(39.5531 0.028597 -3.67398e-21)
(40.5815 -0.0214191 9.71398e-19)
(40.6238 0.218695 1.05692e-18)
(40.6807 0.35647 1.28114e-18)
(40.7384 0.568423 0)
(40.7881 0.797258 6.11894e-20)
(40.8236 1.05697 0)
(40.8382 1.29331 -5.86034e-20)
(40.854 1.5541 -2.03163e-18)
(40.8545 1.83019 -1.31545e-18)
(40.8108 2.1254 8.47173e-20)
(40.762 2.42415 1.01285e-19)
(40.7047 2.72705 -1.12707e-19)
(40.6265 3.0412 -1.09897e-18)
(40.527 3.36498 -2.64691e-18)
(40.405 3.69648 1.78166e-19)
(40.2663 4.03956 -3.40646e-18)
(40.1122 4.3953 2.57334e-19)
(39.9547 4.7648 -1.18785e-18)
(39.7987 5.15261 -6.89846e-19)
(39.6382 5.54183 2.04897e-18)
(39.4124 5.82158 0)
(39.2372 6.20852 0)
(39.0389 6.7125 -1.24675e-18)
(38.729 7.19893 -1.53713e-18)
(38.4381 7.6133 2.11798e-18)
(38.2165 8.08511 -4.92603e-19)
(37.9421 8.61185 0)
(37.6241 9.13071 6.70153e-19)
(37.3655 9.66045 -7.46465e-19)
(37.1466 10.2174 -1.78468e-18)
(36.8748 10.817 -2.81551e-18)
(36.6119 11.4265 1.08259e-18)
(36.4038 12.0611 -1.20523e-18)
(36.1854 12.7411 1.34112e-18)
(35.9906 13.4355 0)
(35.8604 14.1739 -1.69355e-18)
(35.7669 14.9393 -3.16888e-18)
(35.7063 15.7412 1.81193e-18)
(35.7055 16.5744 2.0004e-18)
(35.7643 17.4368 -2.024e-18)
(35.8766 18.3247 0)
(36.0629 19.2291 0)
(36.3509 20.1817 4.44755e-19)
(36.7298 21.1469 -1.05151e-18)
(37.1858 22.1657 -3.42022e-19)
(37.649 23.296 4.07096e-19)
(37.6305 23.8635 -8.51741e-19)
(34.3857 22.5665 2.94044e-19)
(20.2087 13.4874 -2.38577e-18)
(39.5573 0.0582655 8.52556e-19)
(40.7613 0.0428451 -9.69002e-20)
(40.7743 0.363927 -1.07771e-18)
(40.8334 0.512173 5.23234e-19)
(40.8535 0.758658 0)
(40.8944 0.975626 7.31561e-19)
(40.9472 1.19438 -2.35952e-20)
(40.9729 1.45995 -8.06016e-19)
(40.9794 1.72269 1.01279e-18)
(40.9715 1.9943 0)
(40.9657 2.26833 8.13584e-20)
(40.9547 2.56192 6.11409e-19)
(40.9148 2.87294 -9.27552e-19)
(40.8688 3.19477 1.2242e-19)
(40.8005 3.53063 1.36427e-18)
(40.7085 3.87692 -1.67616e-19)
(40.5986 4.23627 1.10215e-18)
(40.4606 4.60531 -2.30943e-19)
(40.301 4.9833 2.8572e-19)
(40.1094 5.37314 9.34123e-19)
(39.8899 5.7831 1.27399e-18)
(39.6988 6.32204 -1.04992e-20)
(39.4483 6.78476 5.23299e-19)
(39.1781 7.13957 2.13012e-18)
(38.9677 7.55646 0)
(38.7393 8.07604 -1.69596e-18)
(38.4531 8.56787 4.78584e-19)
(38.1982 9.03921 1.4318e-20)
(37.9879 9.56127 -5.97801e-20)
(37.7514 10.1146 6.95476e-19)
(37.4959 10.6813 -1.49776e-18)
(37.2897 11.2519 1.87297e-18)
(37.106 11.8626 0)
(36.9054 12.4941 0)
(36.7502 13.1336 0)
(36.6424 13.8155 0)
(36.5566 14.5111 -1.90399e-18)
(36.5267 15.2436 3.58769e-18)
(36.5583 15.9925 0)
(36.6343 16.7604 4.19985e-20)
(36.7691 17.5473 -1.7072e-19)
(36.9734 18.3529 9.66201e-19)
(37.247 19.1687 -5.54711e-19)
(37.5743 19.9858 0)
(38.0106 20.8087 1.26044e-19)
(38.5349 21.7222 -8.1505e-19)
(38.9489 22.5839 5.3629e-19)
(38.6101 22.8815 9.3807e-19)
(34.3848 20.9224 3.8158e-18)
(18.6194 11.209 -2.94614e-18)
(39.5967 0.0803939 -8.41246e-19)
(40.9696 0.0379164 -1.65373e-18)
(41.0267 0.410929 1.41156e-20)
(41.105 0.53316 -5.25214e-19)
(41.1569 0.819644 4.86563e-19)
(41.2013 1.08636 -1.89001e-20)
(41.2289 1.37734 6.4695e-19)
(41.2464 1.65771 8.09241e-19)
(41.2602 1.9567 8.35223e-19)
(41.2654 2.27811 -3.0694e-20)
(41.2217 2.61425 -5.37527e-19)
(41.1712 2.95356 -7.96526e-20)
(41.1139 3.29362 8.21975e-19)
(41.0347 3.64597 0)
(40.933 4.00679 0)
(40.8108 4.3739 8.12297e-20)
(40.6747 4.75121 1.38828e-18)
(40.5244 5.13703 0)
(40.3732 5.53511 1.32219e-19)
(40.2252 5.94508 -1.41016e-18)
(40.0681 6.33947 -1.30077e-18)
(39.8616 6.63575 5.8457e-19)
(39.7131 7.04231 0)
(39.5447 7.57698 -1.17993e-18)
(39.2505 8.07377 -3.33163e-19)
(38.9894 8.4985 3.71656e-19)
(38.8134 8.98303 0)
(38.5853 9.51316 0)
(38.3143 10.0309 -6.98092e-19)
(38.1169 10.5557 -5.60423e-19)
(37.9685 11.1003 2.23428e-18)
(37.7747 11.6833 -7.97312e-19)
(37.5953 12.2615 -8.68825e-19)
(37.4832 12.8557 1.91054e-18)
(37.3721 13.4871 -2.49327e-18)
(37.2894 14.1182 -4.26192e-19)
(37.282 14.7824 1.26627e-18)
(37.3207 15.453 -1.30614e-18)
(37.3935 16.1415 1.0086e-18)
(37.53 16.8405 5.14911e-20)
(37.729 17.5467 -2.198e-19)
(37.9795 18.2524 -4.77585e-19)
(38.2948 18.9459 -5.39535e-20)
(38.7172 19.6594 5.99335e-20)
(39.2176 20.3713 1.11571e-19)
(39.7807 21.1871 0)
(40.0358 21.7193 5.93347e-19)
(39.2402 21.6936 1.4313e-18)
(33.7509 19.0388 -2.65492e-18)
(16.2738 8.7511 -9.07351e-19)
(39.6748 0.106971 6.42919e-19)
(41.2072 0.09521 7.70476e-19)
(41.2416 0.56238 6.22041e-21)
(41.3069 0.706205 -3.81301e-19)
(41.3167 1.01326 -9.25147e-19)
(41.3584 1.27168 4.82007e-19)
(41.4193 1.53699 -1.16871e-18)
(41.4488 1.84634 2.96301e-19)
(41.4503 2.14517 -8.10718e-19)
(41.4359 2.45096 -4.19769e-19)
(41.4346 2.75671 1.05907e-18)
(41.425 3.0843 -7.02129e-19)
(41.3919 3.42887 -6.30551e-19)
(41.352 3.78379 -2.81818e-21)
(41.29 4.15147 -3.80306e-19)
(41.2064 4.52944 5.18703e-19)
(41.1041 4.9199 -7.05749e-19)
(40.9746 5.31802 0)
(40.8243 5.72527 0)
(40.6442 6.14193 0)
(40.4426 6.60101 -1.64282e-19)
(40.2586 7.16418 -6.10826e-19)
(40.0187 7.64991 -5.9309e-19)
(39.7716 8.01322 -2.49555e-19)
(39.6016 8.43716 0)
(39.4051 8.96179 0)
(39.1457 9.45367 7.23904e-19)
(38.9352 9.92234 -4.46788e-19)
(38.7839 10.4326 -7.07211e-20)
(38.6101 10.9692 8.41949e-20)
(38.4166 11.5132 4.42646e-21)
(38.2793 12.0466 -5.67858e-19)
(38.1782 12.6142 3.70699e-19)
(38.0631 13.1934 -1.14486e-18)
(37.9969 13.7654 9.54886e-19)
(37.994 14.3685 5.77977e-19)
(38.0156 14.9679 1.16633e-19)
(38.0876 15.5887 -4.40626e-19)
(38.2259 16.2075 -5.84063e-19)
(38.4089 16.8255 -4.03444e-19)
(38.6425 17.44 -2.021e-19)
(38.9382 18.0495 -1.94588e-20)
(39.3065 18.6544 2.16435e-20)
(39.7125 19.2319 0)
(40.2136 19.8105 0)
(40.7341 20.4734 0)
(40.7721 20.7056 0)
(39.2563 20.2935 0)
(32.1592 16.8315 -1.69088e-18)
(13.0584 6.12946 2.77749e-18)
(39.7807 0.148006 -6.48719e-19)
(41.4961 0.087675 0)
(41.5628 0.589111 0)
(41.6398 0.723069 3.87547e-19)
(41.7012 1.08916 4.15071e-19)
(41.7462 1.39143 -4.80185e-19)
(41.7725 1.72169 5.38742e-19)
(41.789 2.03729 -2.97244e-19)
(41.8111 2.38603 2.64483e-19)
(41.8281 2.74537 4.16258e-19)
(41.7908 3.13153 -4.56777e-19)
(41.7487 3.51138 3.96745e-19)
(41.6959 3.8924 8.83853e-19)
(41.6202 4.28551 0)
(41.5237 4.68408 4.40347e-19)
(41.4074 5.08779 -5.83129e-19)
(41.2785 5.49939 -4.44155e-21)
(41.1365 5.91636 -6.1324e-19)
(40.9941 6.34182 8.19882e-19)
(40.8545 6.77134 0)
(40.7049 7.16623 0)
(40.5244 7.47484 5.96107e-19)
(40.4024 7.89238 1.25503e-19)
(40.2539 8.44097 -8.11771e-19)
(39.9771 8.94687 -2.60912e-19)
(39.7459 9.37112 8.31225e-19)
(39.6114 9.84225 -1.34693e-18)
(39.4293 10.3566 1.08227e-18)
(39.204 10.8569 -6.45213e-19)
(39.0546 11.3526 4.79712e-19)
(38.9666 11.8591 -2.6696e-19)
(38.8422 12.3983 9.95685e-19)
(38.7276 12.9199 -2.34951e-19)
(38.6875 13.4436 7.41354e-19)
(38.6613 13.9952 0)
(38.6566 14.5323 3.21489e-19)
(38.7283 15.0904 4.35733e-19)
(38.8507 15.6365 1.09728e-19)
(38.9982 16.1816 -9.80656e-20)
(39.2011 16.7213 2.34009e-19)
(39.4613 17.2514 -1.79083e-19)
(39.7681 17.7644 -1.83983e-19)
(40.1178 18.2406 6.22709e-19)
(40.5777 18.7233 2.58425e-19)
(41.14 19.276 3.02293e-19)
(41.4375 19.6009 -4.79682e-19)
(41.1888 19.6041 0)
(38.6548 18.6293 1.46645e-18)
(29.6371 14.2849 -7.59958e-19)
(9.01447 3.41785 0)
(39.9301 0.167681 1.63896e-21)
(41.8078 0.158582 -1.37113e-22)
(41.8507 0.739454 -1.93002e-19)
(41.9214 0.901165 0)
(41.9303 1.28215 -4.24511e-21)
(41.975 1.58186 -1.13496e-19)
(42.0349 1.88219 0)
(42.0685 2.23109 1.5296e-19)
(42.0755 2.57003 -2.79657e-19)
(42.0587 2.91432 1.60337e-20)
(42.0679 3.25054 2.51127e-19)
(42.0639 3.61462 -2.53098e-19)
(42.0419 3.99343 -2.80477e-19)
(42.0139 4.38102 0)
(41.9625 4.78171 0)
(41.8886 5.19156 0)
(41.7964 5.61293 -3.32061e-19)
(41.6778 6.04042 6.1595e-19)
(41.5399 6.47608 -1.0894e-18)
(41.3712 6.91708 1.00155e-19)
(41.1842 7.41207 -2.30224e-19)
(41.0093 7.99756 -4.67722e-19)
(40.7802 8.49888 1.26555e-18)
(40.5535 8.86099 1.14652e-18)
(40.4179 9.27624 0)
(40.2547 9.7905 -6.68595e-19)
(40.0234 10.2757 1.25912e-18)
(39.8435 10.7221 -8.6228e-19)
(39.7377 11.1958 3.53725e-19)
(39.6227 11.6949 -1.97153e-19)
(39.4755 12.1934 2.1012e-19)
(39.3814 12.6668 -6.34458e-19)
(39.3409 13.1646 7.92516e-19)
(39.2859 13.6691 -6.86311e-19)
(39.2707 14.1511 -2.34615e-19)
(39.3332 14.6524 4.81836e-19)
(39.4184 15.1351 -4.12709e-19)
(39.5348 15.6239 1.42521e-19)
(39.7139 16.0987 3.21705e-20)
(39.9353 16.5575 0)
(40.1936 16.996 1.36344e-20)
(40.4967 17.4103 1.77667e-19)
(40.8834 17.8187 9.94656e-20)
(41.2996 18.208 -7.63495e-19)
(41.7502 18.5703 -8.54705e-20)
(41.8245 18.6497 -7.26234e-19)
(41.0228 18.3367 0)
(37.1164 16.6255 1.50553e-18)
(25.9908 11.3139 -2.55797e-18)
(5.37005 1.18706 0)
(40.1138 0.249524 0)
(42.1866 0.170273 0)
(42.2531 0.760503 1.48669e-19)
(42.3236 0.911134 -4.5836e-21)
(42.3941 1.34709 4.82652e-20)
(42.4397 1.68053 1.18456e-19)
(42.4727 2.05155 0)
(42.4966 2.41016 -1.5331e-19)
(42.5253 2.79475 8.08657e-20)
(42.5608 3.19226 0)
(42.5368 3.62587 -3.14893e-19)
(42.5066 4.04673 -7.14003e-20)
(42.4632 4.46944 -1.90114e-20)
(42.3967 4.9043 2.11926e-20)
(42.3056 5.34228 0)
(42.1992 5.78154 0)
(42.0779 6.22631 2.86117e-19)
(41.9447 6.67187 1.35131e-19)
(41.8106 7.12149 8.86058e-20)
(41.6793 7.56881 3.79265e-20)
(41.5385 7.96668 -8.77238e-20)
(41.3733 8.2787 5.06505e-20)
(41.2622 8.68759 -5.66576e-19)
(41.1288 9.23876 -2.57151e-19)
(40.8648 9.74912 2.03437e-19)
(40.6517 10.1625 3.29508e-19)
(40.5431 10.5979 -3.92086e-19)
(40.4033 11.0824 -3.33932e-19)
(40.2168 11.552 0)
(40.0884 11.9996 0)
(40.0351 12.4456 0)
(39.9599 12.9203 4.03386e-19)
(39.8801 13.3703 1.65951e-19)
(39.8749 13.8051 2.43743e-19)
(39.9012 14.2612 -1.26031e-19)
(39.934 14.6928 -1.03201e-19)
(40.0295 15.1349 1.45047e-19)
(40.1792 15.5529 -6.17472e-20)
(40.3447 15.9533 1.56392e-20)
(40.5482 16.3372 -8.05301e-20)
(40.7974 16.6996 -1.52802e-19)
(41.0985 17.0418 1.70372e-19)
(41.4141 17.336 0)
(41.9022 17.6926 4.84791e-19)
(42.0908 17.8093 -2.72845e-19)
(41.9058 17.7067 4.18614e-19)
(40.2085 16.8967 0)
(34.4962 14.2458 -6.61621e-19)
(21.4089 7.97241 3.89613e-19)
(3.20087 0.176436 0)
(40.4079 0.261054 2.62696e-21)
(42.5832 0.246868 0)
(42.6227 0.907242 3.38932e-20)
(42.6806 1.07178 1.88255e-20)
(42.6941 1.51871 -4.58639e-20)
(42.7438 1.84115 4.3091e-22)
(42.8103 2.18704 -4.79567e-22)
(42.8526 2.5738 0)
(42.8652 2.94988 -7.99782e-20)
(42.8553 3.33033 -1.27313e-20)
(42.8768 3.69847 6.32081e-20)
(42.8845 4.09739 -8.30234e-20)
(42.8761 4.51136 4.72536e-21)
(42.8592 4.93362 1.01034e-20)
(42.8205 5.36647 -6.17683e-21)
(42.7555 5.80987 0)
(42.6713 6.26227 1.40964e-19)
(42.5601 6.71881 -1.7357e-19)
(42.4301 7.18104 1.17166e-19)
(42.267 7.64566 2.5129e-21)
(42.0898 8.16739 -2.77827e-20)
(41.9275 8.77566 0)
(41.7038 9.29088 -4.38091e-20)
(41.4743 9.6411 -1.07217e-19)
(41.3548 10.0224 -2.87369e-19)
(41.218 10.5108 -3.31272e-19)
(41.0074 10.9823 0)
(40.8324 11.3913 2.11947e-19)
(40.7435 11.8127 2.47495e-19)
(40.673 12.2571 -1.56795e-19)
(40.5495 12.6987 2.26315e-19)
(40.4634 13.0995 8.46744e-20)
(40.4513 13.5114 -1.30297e-19)
(40.4272 13.9321 5.63799e-20)
(40.4207 14.32 1.27115e-19)
(40.5015 14.7174 1.02862e-19)
(40.6077 15.0864 4.66199e-20)
(40.7188 15.4467 0)
(40.8807 15.7895 -7.85899e-20)
(41.0823 16.1074 1.66191e-19)
(41.3137 16.3962 1.58854e-19)
(41.5586 16.644 -2.29255e-19)
(41.9721 16.9547 3.88858e-19)
(42.1752 17.0824 -1.91981e-19)
(42.1718 17.0618 6.49546e-19)
(41.3992 16.6477 -1.11424e-20)
(38.3397 15.2523 0)
(30.4199 11.6912 1.32464e-18)
(14.6889 4.5244 -1.11994e-18)
(1.24464 -0.130696 -3.87603e-19)
(40.6521 0.301932 -2.63001e-21)
(43.0302 0.239499 -6.44099e-20)
(43.0929 0.891017 1.07491e-20)
(43.1595 1.05267 -1.80424e-20)
(43.2276 1.54733 -4.80577e-20)
(43.2894 1.89345 -2.05319e-21)
(43.3286 2.30341 1.15155e-21)
(43.3661 2.69911 0)
(43.4141 3.12487 -7.14139e-20)
(43.475 3.56165 4.85786e-20)
(43.4701 4.04109 0)
(43.4568 4.50366 -2.32046e-21)
(43.4264 4.97148 -4.55542e-20)
(43.3708 5.44943 4.1714e-20)
(43.2876 5.9297 -4.17979e-20)
(43.1876 6.40699 1.29654e-21)
(43.0709 6.88542 -9.62128e-22)
(42.9419 7.3606 0)
(42.8072 7.83387 1.02554e-19)
(42.6735 8.29577 -1.16779e-20)
(42.53 8.69814 5.80106e-21)
(42.3576 9.00691 0)
(42.2435 9.39641 0)
(42.1229 9.94377 1.25139e-19)
(41.8627 10.4611 -1.72623e-20)
(41.6362 10.849 8.97123e-20)
(41.5222 11.2336 -4.55823e-20)
(41.41 11.6764 2.57308e-20)
(41.2497 12.1037 -1.25987e-19)
(41.1074 12.4977 -3.05244e-20)
(41.0506 12.8687 -1.61987e-19)
(40.9997 13.2689 2.21196e-21)
(40.926 13.6463 3.08927e-20)
(40.9129 13.9911 2.49194e-21)
(40.9586 14.3524 -1.35769e-21)
(40.9984 14.6854 2.16694e-20)
(41.0687 15.0187 0)
(41.1962 15.327 1.20559e-19)
(41.3388 15.6059 -4.37472e-20)
(41.5005 15.8618 -1.32448e-19)
(41.6811 16.0872 1.93518e-19)
(41.9742 16.3401 -1.88636e-20)
(42.1917 16.4981 -1.9888e-19)
(42.2354 16.514 -1.29339e-20)
(41.9064 16.3317 -3.2987e-19)
(40.1607 15.5572 -8.44083e-19)
(35.2481 13.4668 4.75113e-19)
(24.317 8.85966 0)
(7.41444 1.84864 -6.63476e-19)
(-0.0894123 -0.0830452 1.29006e-18)
(41.0536 0.327167 1.55925e-22)
(43.4789 0.292431 6.45518e-20)
(43.5133 1.01338 -3.31424e-20)
(43.5727 1.17527 -9.16728e-22)
(43.5854 1.67207 4.81139e-20)
(43.6495 2.00601 0)
(43.7322 2.38834 0)
(43.7961 2.80744 -2.96769e-21)
(43.8242 3.219 1.46774e-19)
(43.827 3.63881 -3.98843e-20)
(43.8665 4.03773 3.83161e-21)
(43.8889 4.4761 -8.34662e-21)
(43.8968 4.92829 3.83158e-21)
(43.8955 5.38646 4.26477e-21)
(43.8649 5.85781 9.73079e-20)
(43.8076 6.33864 -2.9053e-20)
(43.7271 6.82637 2.97591e-20)
(43.6178 7.3173 3.75832e-21)
(43.4883 7.80923 -9.91335e-21)
(43.3206 8.29898 1.241e-20)
(43.1386 8.83928 -1.23154e-21)
(42.9774 9.46802 -1.58462e-21)
(42.7393 9.99886 0)
(42.4823 10.3409 3.03521e-20)
(42.3469 10.6751 -6.44155e-22)
(42.2257 11.1324 -4.91706e-20)
(42.0248 11.5813 -3.18281e-21)
(41.8206 11.9468 7.19324e-22)
(41.7077 12.3104 0)
(41.6528 12.6848 -3.41188e-21)
(41.5338 13.0683 -2.78932e-20)
(41.4226 13.3977 -3.13006e-20)
(41.4015 13.721 3.74407e-20)
(41.3881 14.0603 6.59833e-21)
(41.3608 14.3641 -3.03043e-20)
(41.4131 14.6694 -2.95641e-20)
(41.5062 14.9457 0)
(41.5849 15.1988 -8.17881e-20)
(41.6927 15.4371 -7.80413e-20)
(41.8291 15.65 8.71713e-20)
(42.0331 15.8628 -1.15835e-19)
(42.2294 16.0427 1.45856e-19)
(42.2931 16.0809 0)
(42.1137 16.0109 1.30189e-19)
(41.0254 15.5643 0)
(37.7717 14.2124 2.00094e-19)
(30.0378 11.0363 -4.55695e-19)
(16.1365 5.28086 2.58256e-19)
(3.35458 0.688688 0)
(-0.739715 -0.0562111 7.70579e-20)
(41.3512 0.271002 3.29408e-23)
(43.9555 0.25401 3.77032e-23)
(44.0298 0.940326 3.38932e-20)
(44.0988 1.10099 1.89008e-22)
(44.1802 1.62909 1.80854e-21)
(44.2558 1.98486 2.40068e-22)
(44.3193 2.42479 -2.67218e-22)
(44.3807 2.853 6.0373e-22)
(44.4528 3.30576 -7.01195e-20)
(44.5527 3.78125 -1.81768e-21)
(44.5813 4.3094 -8.24235e-22)
(44.5932 4.81893 1.82176e-21)
(44.5853 5.3354 4.86074e-20)
(44.5422 5.8673 -5.29708e-20)
(44.4708 6.39541 -5.99356e-20)
(44.3751 6.91946 2.91378e-20)
(44.2579 7.44074 -2.84461e-20)
(44.1214 7.95299 -1.7774e-21)
(43.9732 8.45686 -1.86152e-21)
(43.8208 8.94018 0)
(43.6591 9.35995 -1.98207e-21)
(43.457 9.66882 -6.34001e-22)
(43.3176 10.0349 7.08676e-22)
(43.1853 10.5628 0)
(42.9169 11.0889 0)
(42.6463 11.4601 2.99478e-21)
(42.4825 11.7944 0)
(42.3725 12.1836 -7.20252e-22)
(42.222 12.5605 0)
(42.0382 12.9053 6.81282e-22)
(41.9322 13.1969 -5.77347e-21)
(41.879 13.5182 1.20917e-21)
(41.7978 13.8306 -1.81546e-20)
(41.7402 14.0981 3.06546e-21)
(41.7729 14.3763 1.63743e-20)
(41.8083 14.6293 3.38595e-20)
(41.8281 14.8691 -1.75293e-21)
(41.8977 15.0943 0)
(41.9913 15.2899 -1.42986e-21)
(42.1185 15.4766 1.77315e-21)
(42.2642 15.6707 0)
(42.3191 15.7279 -2.60572e-21)
(42.2018 15.7215 -1.40068e-20)
(41.48 15.4559 -1.14914e-19)
(39.2647 14.5564 -2.42569e-21)
(33.6298 12.3129 0)
(22.88 8.02663 0)
(7.55726 2.13014 3.45105e-20)
(0.608063 0.226639 -3.42889e-20)
(-1.07055 -0.0889828 7.95366e-20)
(41.7387 0.311937 1.10037e-19)
(44.4331 0.286083 1.21799e-19)
(44.472 0.991806 6.6656e-20)
(44.5295 1.15599 7.7464e-20)
(44.5644 1.66871 8.1428e-20)
(44.6502 2.00996 -9.45512e-20)
(44.7616 2.41705 0)
(44.8555 2.86334 0)
(44.9195 3.3101 7.01534e-20)
(44.9465 3.75763 1.81728e-21)
(45.0144 4.19577 -8.38796e-20)
(45.0613 4.68123 -5.32146e-21)
(45.0937 5.18069 -1.04457e-19)
(45.1111 5.68422 1.15498e-19)
(45.0897 6.20659 1.37085e-19)
(45.0411 6.73632 0)
(44.9598 7.27295 0)
(44.8483 7.80889 1.77686e-21)
(44.7091 8.34257 1.86084e-21)
(44.5297 8.86849 -9.70337e-20)
(44.32 9.42556 1.98167e-21)
(44.1351 10.0782 0)
(43.8633 10.641 0)
(43.5558 11.0007 -1.08021e-20)
(43.3599 11.2929 -5.8779e-20)
(43.2183 11.6971 1.34266e-20)
(43.018 12.1198 0)
(42.762 12.4561 -3.41411e-20)
(42.5797 12.7634 0)
(42.493 13.0557 -6.81039e-22)
(42.3694 13.3801 0)
(42.2163 13.6495 0)
(42.1454 13.8903 1.354e-20)
(42.1331 14.1532 2.09402e-20)
(42.0851 14.3873 0)
(42.0725 14.6125 0)
(42.1238 14.8227 1.75195e-21)
(42.1701 15.0025 0)
(42.2368 15.1765 1.41283e-21)
(42.3414 15.3844 -6.08187e-20)
(42.3913 15.4541 7.32473e-20)
(42.3127 15.4794 1.01046e-20)
(41.8165 15.33 7.96421e-21)
(40.2088 14.704 -1.26111e-19)
(35.8585 13.0263 -7.82355e-20)
(27.1676 9.62498 4.44949e-19)
(12.6762 4.03439 -2.01593e-19)
(2.79252 0.82648 -2.36851e-19)
(-0.804996 0.101802 1.9557e-19)
(-1.09125 -0.0210795 0)
(42.0844 0.216947 -1.09619e-19)
(44.8828 0.220024 1.78915e-19)
(44.9793 0.86701 -6.51776e-20)
(45.0678 0.998795 1.13574e-19)
(45.1643 1.53246 -8.57713e-20)
(45.2842 1.86752 9.71343e-20)
(45.3829 2.33772 7.806e-21)
(45.4907 2.78901 -8.69108e-21)
(45.5994 3.26515 -6.01266e-20)
(45.7549 3.78507 -1.11126e-20)
(45.8381 4.35471 8.85893e-20)
(45.8905 4.91605 2.55541e-19)
(45.9179 5.49191 -1.76146e-19)
(45.9002 6.09189 -1.04472e-19)
(45.8467 6.683 -5.07315e-19)
(45.7561 7.2739 2.09862e-20)
(45.6368 7.85631 -2.34234e-20)
(45.4857 8.4281 2.31836e-19)
(45.3104 8.98404 2.63371e-20)
(45.1126 9.51068 6.74689e-20)
(44.9124 9.97137 0)
(44.6614 10.3028 0)
(44.4623 10.6471 0)
(44.2847 11.1379 0)
(43.9925 11.6743 5.96797e-20)
(43.6698 12.068 -1.81542e-19)
(43.4046 12.361 0)
(43.2419 12.6792 1.33934e-19)
(43.0813 13.001 0)
(42.8515 13.3054 0)
(42.6553 13.5237 -1.25315e-19)
(42.5641 13.7592 6.26097e-20)
(42.4838 14.0078 -1.43211e-19)
(42.3688 14.2128 4.50536e-20)
(42.3479 14.4176 0)
(42.3778 14.6112 0)
(42.3648 14.7756 7.68349e-20)
(42.3826 14.9388 -2.72015e-19)
(42.459 15.1464 0)
(42.5006 15.2215 -1.97027e-19)
(42.4139 15.2528 3.09282e-19)
(42.0235 15.17 -3.69026e-19)
(40.7721 14.7243 2.15596e-19)
(37.2617 13.414 -2.67068e-19)
(30.0391 10.6198 6.81233e-19)
(17.1096 5.67712 -6.03139e-19)
(5.21868 1.55937 3.97483e-19)
(0.134298 0.342523 -8.90015e-19)
(-1.41529 0.0609123 1.05424e-18)
(-0.999931 0.0333597 -6.80788e-19)
(42.327 0.169663 -3.27274e-19)
(45.2917 0.193591 5.56022e-20)
(45.3701 0.828332 0)
(45.4484 0.960241 -1.89797e-19)
(45.5164 1.47411 -5.23808e-19)
(45.6531 1.79118 1.6498e-20)
(45.8143 2.20644 0)
(45.9613 2.66263 0)
(46.0891 3.14772 -2.47889e-20)
(46.1567 3.61553 2.75984e-20)
(46.2699 4.10161 -5.55805e-19)
(46.3614 4.64033 3.73772e-19)
(46.435 5.19806 2.85897e-19)
(46.4806 5.76463 -3.97589e-19)
(46.4826 6.35475 3.53184e-19)
(46.4483 6.95366 5.43917e-20)
(46.3687 7.56282 -6.02011e-19)
(46.2528 8.16751 -8.2318e-19)
(46.0978 8.76718 0)
(45.8985 9.35008 3.46671e-19)
(45.6446 9.93796 3.71353e-19)
(45.4078 10.6246 0)
(45.0972 11.2656 -4.16936e-19)
(44.6975 11.6733 0)
(44.4004 11.9512 0)
(44.1756 12.2834 1.80974e-19)
(43.9527 12.6744 1.43445e-19)
(43.6515 13.0045 2.80144e-19)
(43.359 13.2638 0)
(43.1702 13.4624 0)
(43.0308 13.7151 5.43809e-20)
(42.8528 13.9333 7.87495e-20)
(42.6944 14.1027 2.8164e-19)
(42.6586 14.2842 3.44565e-21)
(42.622 14.4553 5.57707e-21)
(42.548 14.5988 -2.79419e-19)
(42.5417 14.7507 -1.06564e-20)
(42.6023 14.9488 3.57155e-19)
(42.633 15.0278 2.30839e-19)
(42.5252 15.0659 1.3158e-19)
(42.1827 15.0252 3.28544e-19)
(41.1537 14.6974 1.91768e-20)
(38.296 13.6613 -4.44416e-19)
(32.0751 11.2728 -2.64867e-19)
(20.2141 6.79721 -7.56093e-19)
(7.41679 2.30214 8.53413e-19)
(1.31097 0.615485 -3.82116e-19)
(-1.06833 0.140991 0)
(-1.51675 0.0691762 0)
(-0.817455 0.0598816 1.33345e-19)
(42.6077 0.13143 1.0689e-18)
(45.6768 0.0925997 4.59311e-19)
(45.8036 0.62259 -4.55925e-19)
(45.9287 0.703919 1.5279e-20)
(46.0714 1.20862 1.09343e-18)
(46.2544 1.51317 -1.9307e-20)
(46.4221 1.98765 0)
(46.6014 2.4403 -8.7804e-19)
(46.777 2.92794 -2.95422e-20)
(47.0131 3.50076 -7.67671e-22)
(47.1611 4.09371 1.25044e-18)
(47.2943 4.71626 -5.84394e-19)
(47.3835 5.36658 5.45205e-22)
(47.4178 6.04631 3.42304e-19)
(47.3975 6.72769 0)
(47.3282 7.41195 0)
(47.2149 8.08633 4.65624e-19)
(47.0501 8.75222 6.72963e-19)
(46.8453 9.39668 0)
(46.589 10.0089 -3.45513e-19)
(46.3188 10.5531 -3.70084e-19)
(45.9995 10.9526 -1.07252e-19)
(45.6885 11.279 1.46614e-20)
(45.4344 11.733 4.29129e-19)
(45.1026 12.2845 1.32352e-19)
(44.7205 12.7308 1.29051e-19)
(44.324 13.0175 -3.92652e-19)
(44.0204 13.2619 -2.59655e-19)
(43.8034 13.509 3.34416e-19)
(43.5454 13.7755 -3.50552e-19)
(43.25 13.9367 0)
(43.0568 14.076 0)
(42.9799 14.2388 1.59113e-20)
(42.8456 14.3844 -2.31034e-19)
(42.7328 14.5055 2.77626e-19)
(42.7308 14.6391 4.7642e-19)
(42.7661 14.7986 -1.70145e-19)
(42.7735 14.8713 -4.25524e-19)
(42.6496 14.896 -4.87444e-19)
(42.3327 14.8807 -2.89424e-19)
(41.4537 14.628 -1.56764e-20)
(39.0829 13.795 3.93764e-19)
(33.4708 11.6642 0)
(22.0817 7.42385 2.62478e-19)
(9.5495 3.06368 2.98196e-19)
(2.4024 0.992284 3.36459e-19)
(-0.561122 0.394725 1.13159e-18)
(-1.5208 0.212666 -4.18854e-19)
(-1.40745 0.161542 0)
(-0.62586 0.0788018 0)
(42.6574 -0.0127205 7.23749e-20)
(45.9325 0.0259164 -8.13363e-19)
(46.0822 0.511631 4.70451e-19)
(46.2005 0.58371 -1.14471e-18)
(46.3357 1.04527 -6.2264e-19)
(46.535 1.3134 -6.74012e-22)
(46.767 1.71055 2.51233e-20)
(46.9956 2.15598 8.16628e-19)
(47.217 2.65293 6.63777e-20)
(47.3725 3.14468 7.8525e-20)
(47.5577 3.68268 -6.54732e-19)
(47.7226 4.27075 -9.99073e-20)
(47.8661 4.89719 -9.89987e-19)
(47.969 5.546 -1.12242e-18)
(48.0195 6.22543 1.45863e-19)
(48.017 6.92443 -1.62681e-19)
(47.9551 7.63978 0)
(47.8441 8.34763 -8.69922e-19)
(47.6751 9.05067 0)
(47.4456 9.72998 0)
(47.1525 10.387 0)
(46.8428 11.1258 -2.62915e-19)
(46.4762 11.884 8.10602e-19)
(45.9642 12.4032 -5.44685e-19)
(45.5281 12.7237 0)
(45.1521 12.9998 -1.57093e-19)
(44.836 13.3373 -5.65696e-19)
(44.4988 13.6576 -7.6353e-19)
(44.0913 13.8994 -5.06998e-19)
(43.7248 14.0082 3.19977e-19)
(43.5031 14.152 -3.98437e-19)
(43.3393 14.3005 2.16683e-19)
(43.0987 14.4079 4.78863e-19)
(42.9644 14.4854 0)
(42.9471 14.5774 3.17827e-19)
(42.9118 14.6687 -6.08895e-19)
(42.8638 14.7169 -1.58979e-20)
(42.7653 14.7548 4.23058e-19)
(42.4632 14.7216 2.43429e-19)
(41.6701 14.5149 0)
(39.5591 13.7812 3.67435e-19)
(34.4235 11.8802 -4.21875e-19)
(23.2146 7.79732 9.57137e-19)
(11.1428 3.68406 0)
(3.46453 1.45167 -1.20027e-18)
(0.0667361 0.775867 3.3266e-19)
(-1.27627 0.605075 -3.6949e-19)
(-1.65862 0.541678 -4.12684e-19)
(-1.35051 0.374558 9.2632e-19)
(-0.535717 0.133212 6.71833e-22)
(42.5776 -0.0734964 -7.96053e-19)
(46.1407 -0.119725 9.58333e-19)
(46.3656 0.207221 -1.08602e-18)
(46.5511 0.24053 2.38e-18)
(46.7681 0.664759 -1.46058e-18)
(47.0341 0.895365 9.8412e-20)
(47.302 1.34721 -1.00362e-18)
(47.5906 1.77496 0)
(47.8694 2.25461 -1.27637e-18)
(48.2013 2.84882 1.5695e-18)
(48.4582 3.47812 3.19602e-21)
(48.7001 4.14605 -1.14203e-19)
(48.8953 4.86699 9.86653e-19)
(49.0326 5.64089 -1.70614e-19)
(49.0978 6.43794 1.29109e-18)
(49.0847 7.24385 1.90222e-19)
(49.0014 8.05087 0)
(48.8434 8.85676 8.66179e-19)
(48.6169 9.6393 2.24378e-18)
(48.3177 10.3872 0)
(47.963 11.077 0)
(47.5444 11.6137 0)
(47.0612 11.9626 -1.16549e-18)