/*--------------------------------*- C++ -*----------------------------------*\
| =========                 |                                                 |
| \\      /  F ield         | OpenFOAM: The Open Source CFD Toolbox           |
|  \\    /   O peration     | Version:  v1912                                 |
|   \\  /    A nd           | Website:  www.openfoam.com                      |
|    \\/     M anipulation  |                                                 |
\*---------------------------------------------------------------------------*/
FoamFile
{
    version     2.0;
    format      ascii;
    class       surfaceScalarField;
    location    "0.36";
    object      phi;
}
// * * * * * * * * * * * * * * * * * * * * * * * * * * * * * * * * * * * * * //

dimensions      [0 3 -1 0 0 0 0];
oriented        oriented;


internalField   nonuniform List<scalar> 
13060
(
0.00580112
0.988397
-0.994198
0.00786827
0.945487
-0.947554
0.00936055
0.899866
-0.901359
0.0106722
0.856345
-0.857657
0.0120203
0.815101
-0.816449
0.013443
0.775702
-0.777125
0.0148025
0.737946
-0.739305
0.0161262
0.70199
-0.703314
0.0175463
0.66767
-0.66909
0.0191118
0.634901
-0.636466
0.0206863
0.603731
-0.605305
0.022066
0.57395
-0.575329
0.0232339
0.545577
-0.546744
0.0243055
0.518537
-0.519609
0.0253027
0.492904
-0.493901
0.0261447
0.468651
-0.469493
0.0266861
0.445753
-0.446295
0.0270262
0.424003
-0.424344
0.0271685
0.4035
-0.403642
0.0269837
0.384051
-0.383867
0.0264213
0.365804
-0.365241
0.0255709
0.348466
-0.347616
0.0249279
0.331797
-0.331154
0.0243761
0.316306
-0.315755
0.0236417
0.30181
-0.301076
0.0227599
0.288006
-0.287124
0.0218655
0.274828
-0.273934
0.0209721
0.262464
-0.26157
0.0200121
0.250832
-0.249872
0.0190309
0.239724
-0.238742
0.0180743
0.229311
-0.228355
0.0170499
0.219552
-0.218527
0.0159432
0.21038
-0.209274
0.0148105
0.201726
-0.200593
0.0136743
0.193442
-0.192306
0.0125163
0.185565
-0.184407
0.011314
0.178179
-0.176977
0.0100881
0.171277
-0.170051
0.0088649
0.164738
-0.163514
0.00761695
0.158547
-0.157299
0.00633071
0.152658
-0.151372
0.00510233
0.147051
-0.145822
0.00397603
0.14172
-0.140594
0.00284784
0.136715
-0.135587
0.00175747
0.131738
-0.130648
0.0007307
0.127262
-0.126235
-0.000234118
0.122361
-0.121396
-0.0014121
0.118829
-0.117651
-0.00162242
0.110218
-0.110008
0.0797503
-0.0813728
0.005655
0.982742
0.00705909
0.944083
0.00817907
0.898746
0.009259
0.855265
0.0104308
0.813929
0.0118334
0.7743
0.0133708
0.736408
0.0148738
0.700487
0.0162271
0.666317
0.0173575
0.63377
0.0185056
0.602583
0.0196457
0.572809
0.020706
0.544516
0.021467
0.517777
0.0219139
0.492457
0.0221911
0.468374
0.0223108
0.445634
0.0222481
0.424066
0.0221347
0.403613
0.0219856
0.3842
0.0219234
0.365866
0.0217114
0.348678
0.0211312
0.332378
0.020462
0.316976
0.0198231
0.302449
0.0190833
0.288746
0.018199
0.275713
0.0172726
0.26339
0.0163016
0.251803
0.0152362
0.240789
0.0140939
0.230454
0.0129391
0.220707
0.0118252
0.211494
0.0107097
0.202841
0.00954805
0.194603
0.00834355
0.18677
0.00715926
0.179363
0.00601469
0.172422
0.00489452
0.165858
0.00379827
0.159644
0.00280447
0.153652
0.00183261
0.148023
0.000866235
0.142687
2.2505e-05
0.137559
-0.000856485
0.132617
-0.00157806
0.127984
-0.00232609
0.123109
-0.00262117
0.119124
-0.00221433
0.109811
0.077536
0.00591807
0.976824
0.00735737
0.942643
0.00824239
0.897861
0.00909635
0.854411
0.00997581
0.813049
0.0108968
0.773379
0.0117329
0.735572
0.0127174
0.699503
0.0139592
0.665075
0.0152754
0.632454
0.0164515
0.601407
0.0173176
0.571943
0.0180139
0.54382
0.0186906
0.5171
0.0192519
0.491896
0.0195086
0.468117
0.0195843
0.445558
0.0194794
0.424171
0.0191046
0.403988
0.0184303
0.384875
0.0175242
0.366772
0.016604
0.349598
0.0158631
0.333118
0.0150998
0.317739
0.0141792
0.30337
0.013236
0.289689
0.0123222
0.276626
0.0113831
0.264329
0.0103873
0.252798
0.00940569
0.241771
0.00847614
0.231383
0.00751984
0.221663
0.0065025
0.212512
0.00549456
0.203849
0.0045266
0.195571
0.00357843
0.187718
0.00268461
0.180257
0.00179268
0.173314
0.000941329
0.166709
0.000121634
0.160463
-0.000749675
0.154523
-0.00150212
0.148775
-0.00211262
0.143297
-0.00268719
0.138134
-0.00316846
0.133099
-0.00356392
0.128379
-0.00390202
0.123447
-0.00362093
0.118843
-0.00264391
0.108834
0.0748921
0.00484809
0.971976
0.00550442
0.941987
0.00615768
0.897208
0.006995
0.853574
0.00802808
0.812016
0.0091748
0.772232
0.0103543
0.734393
0.0114007
0.698456
0.0122714
0.664204
0.0130925
0.631633
0.0139107
0.600588
0.0146723
0.571182
0.0150436
0.543449
0.0150563
0.517087
0.014984
0.491968
0.0148955
0.468205
0.0146532
0.4458
0.014303
0.424521
0.0140138
0.404277
0.0137487
0.38514
0.0134365
0.367084
0.0128703
0.350165
0.0121012
0.333888
0.0113727
0.318467
0.0106274
0.304115
0.0097345
0.290582
0.00875996
0.277601
0.00782931
0.26526
0.00690725
0.25372
0.00585268
0.242825
0.00473431
0.232501
0.00365491
0.222742
0.00265321
0.213513
0.00169488
0.204807
0.000751212
0.196515
-0.000179788
0.188649
-0.00118634
0.181264
-0.00209346
0.174221
-0.00290743
0.167523
-0.00361279
0.161169
-0.00419538
0.155105
-0.00473664
0.149316
-0.00519795
0.143758
-0.00547135
0.138407
-0.00556499
0.133192
-0.00549379
0.128308
-0.00534767
0.123301
-0.00466119
0.118156
-0.00318653
0.107359
0.0717056
0.00501084
0.966965
0.00590382
0.941094
0.0063838
0.896728
0.00695427
0.853004
0.00756555
0.811405
0.00807811
0.771719
0.00868749
0.733783
0.00949208
0.697652
0.0103939
0.663303
0.0112003
0.630827
0.0116684
0.60012
0.0120046
0.570845
0.0123869
0.543066
0.0126451
0.516829
0.0125875
0.492025
0.0123481
0.468445
0.0120296
0.446119
0.011452
0.425099
0.0106063
0.405123
0.00963045
0.386116
0.00864234
0.368072
0.0077179
0.351089
0.00685062
0.334755
0.00590782
0.31941
0.00497671
0.305046
0.0040897
0.291469
0.00310745
0.278583
0.00207373
0.266293
0.00108761
0.254707
0.000207411
0.243705
-0.000652844
0.233362
-0.0015586
0.223648
-0.00248583
0.21444
-0.00336675
0.205688
-0.00419322
0.197342
-0.00495339
0.189409
-0.0055745
0.181885
-0.00615187
0.174798
-0.0066869
0.168058
-0.00716139
0.161643
-0.00752915
0.155473
-0.00770902
0.149496
-0.00774703
0.143796
-0.00769857
0.138359
-0.00753156
0.133025
-0.00714139
0.127918
-0.00667163
0.122831
-0.00567389
0.117159
-0.00376394
0.10545
0.0679416
0.00426007
0.962705
0.00435742
0.940997
0.00453622
0.896549
0.0051007
0.852439
0.00578877
0.810717
0.00667026
0.770838
0.00750059
0.732953
0.00814488
0.697007
0.0085997
0.662848
0.00895848
0.630468
0.00923346
0.599845
0.00920597
0.570873
0.00891306
0.543359
0.00853832
0.517204
0.00819626
0.492367
0.0077434
0.468898
0.0072066
0.446656
0.00678013
0.425525
0.00637424
0.405529
0.00587944
0.386611
0.00525263
0.368699
0.00444971
0.351892
0.00355892
0.335646
0.0027298
0.320239
0.00185472
0.305921
0.000937379
0.292386
3.98748e-05
0.279481
-0.000863467
0.267197
-0.00181281
0.255656
-0.00286747
0.24476
-0.00393756
0.234432
-0.00493117
0.224642
-0.00583715
0.215346
-0.00668722
0.206538
-0.0074662
0.198121
-0.00819595
0.190139
-0.00889154
0.18258
-0.00948706
0.175394
-0.00992027
0.168491
-0.0101869
0.16191
-0.0103474
0.155634
-0.0104215
0.14957
-0.0103264
0.143701
-0.0100021
0.138034
-0.00949307
0.132516
-0.00883302
0.127258
-0.00812208
0.12212
-0.00679623
0.115833
-0.00434072
0.102994
0.0636009
0.00466667
0.958038
0.00499431
0.940669
0.00516218
0.896382
0.00534468
0.852257
0.00552521
0.810536
0.00586786
0.770495
0.00624549
0.732575
0.00664612
0.696607
0.00694977
0.662544
0.00701471
0.630403
0.0069739
0.599886
0.00701607
0.570831
0.00697802
0.543397
0.00667426
0.517507
0.00620849
0.492833
0.00570761
0.469399
0.00504538
0.447318
0.00409976
0.426471
0.00305216
0.406576
0.00201087
0.387652
0.00101122
0.369698
3.97372e-05
0.352863
-0.00106721
0.336753
-0.00213573
0.321308
-0.00315668
0.306942
-0.00416133
0.293391
-0.00523043
0.28055
-0.00630886
0.268275
-0.00728581
0.256633
-0.00813414
0.245608
-0.00892527
0.235223
-0.00970995
0.225426
-0.0104707
0.216107
-0.0111555
0.207223
-0.0117833
0.198748
-0.0123017
0.190657
-0.012649
0.182928
-0.0128791
0.175624
-0.0130511
0.168663
-0.0131292
0.161988
-0.0130378
0.155542
-0.0127673
0.1493
-0.0123805
0.143314
-0.0118982
0.137552
-0.0112827
0.131901
-0.0104683
0.126443
-0.00945712
0.121109
-0.00779894
0.114175
-0.0048565
0.100052
0.0587444
0.00398213
0.954056
0.00345901
0.941192
0.00330262
0.896538
0.00358908
0.85197
0.00405605
0.810069
0.00457241
0.769979
0.00492604
0.732222
0.00499478
0.696538
0.00493341
0.662605
0.0048318
0.630504
0.00450221
0.600216
0.00391778
0.571415
0.00329486
0.54402
0.00276214
0.51804
0.00213834
0.493457
0.00144488
0.470092
0.00087717
0.447886
0.000405529
0.426943
-0.000195312
0.407177
-0.000942674
0.388399
-0.00174565
0.370501
-0.00259002
0.353708
-0.00352611
0.337689
-0.00451847
0.3223
-0.00552264
0.307946
-0.00651992
0.294388
-0.00742537
0.281455
-0.00830765
0.269158
-0.00924947
0.257575
-0.0102476
0.246607
-0.0112088
0.236184
-0.0120677
0.226285
-0.012832
0.216872
-0.0135245
0.207916
-0.0140938
0.199318
-0.0145623
0.191126
-0.0149953
0.183361
-0.0153184
0.175947
-0.0154475
0.168792
-0.0153991
0.161939
-0.0152406
0.155384
-0.0149529
0.149012
-0.0144624
0.142824
-0.013778
0.136868
-0.012974
0.131097
-0.0120273
0.125497
-0.010819
0.119901
-0.00887994
0.112235
-0.00536492
0.0965365
0.0533795
0.00442482
0.949631
0.00426264
0.941354
0.0040886
0.896712
0.00390941
0.852149
0.00396231
0.810016
0.00396656
0.769975
0.00384429
0.732344
0.00360583
0.696776
0.0033145
0.662897
0.00298337
0.630836
0.00277964
0.600419
0.00253311
0.571662
0.00207751
0.544476
0.00149654
0.518621
0.000832058
0.494121
4.90627e-05
0.470875
-0.000923606
0.448858
-0.00197546
0.427995
-0.00298946
0.408191
-0.00406888
0.389479
-0.00524458
0.371677
-0.00634579
0.354809
-0.00740659
0.338749
-0.00849006
0.323384
-0.0095501
0.309006
-0.0106302
0.295468
-0.0117591
0.282584
-0.0128493
0.270248
-0.0137836
0.258509
-0.01458
0.247403
-0.0153079
0.236912
-0.0160109
0.226988
-0.0166316
0.217492
-0.0171302
0.208414
-0.0175659
0.199753
-0.0179101
0.19147
-0.018064
0.183514
-0.0180495
0.175933
-0.0179422
0.168685
-0.0177194
0.161717
-0.017319
0.154983
-0.0167791
0.148472
-0.0161605
0.142205
-0.0154373
0.136144
-0.0145778
0.130237
-0.013615
0.124534
-0.0121224
0.118409
-0.00984088
0.109954
-0.00582215
0.0925178
0.0475573
0.00370629
0.945925
0.00293011
0.942131
0.00258872
0.897053
0.00253892
0.852199
0.0025915
0.809964
0.00257964
0.769986
0.00240948
0.732514
0.0020467
0.697139
0.00162508
0.663318
0.00109189
0.631369
0.000382164
0.601129
-0.000355891
0.5724
-0.00106339
0.545183
-0.00177424
0.519332
-0.00252797
0.494875
-0.00330759
0.471655
-0.00402915
0.44958
-0.00471921
0.428685
-0.00547709
0.408949
-0.00620403
0.390206
-0.00696202
0.372435
-0.00788482
0.355732
-0.00886859
0.339733
-0.00989317
0.324408
-0.0109033
0.310016
-0.0118419
0.296407
-0.0127136
0.283456
-0.0136005
0.271135
-0.0145421
0.259451
-0.0155051
0.248366
-0.0164099
0.237817
-0.0171806
0.227759
-0.0178471
0.218159
-0.0184346
0.209002
-0.0188777
0.200196
-0.0191718
0.191764
-0.0193976
0.18374
-0.0195453
0.17608
-0.01953
0.16867
-0.0193455
0.161532
-0.0190398
0.154678
-0.0185685
0.148001
-0.0178866
0.141523
-0.0170393
0.135297
-0.0160785
0.129276
-0.0150851
0.12354
-0.0134375
0.116761
-0.0109124
0.107429
-0.00629792
0.0879034
0.0412594
0.00432999
0.941595
0.00385471
0.942606
0.00349703
0.897411
0.00300425
0.852692
0.00269681
0.810271
0.00208889
0.770594
0.00148719
0.733116
0.000960971
0.697665
0.000461842
0.663818
0.000104828
0.631726
-0.000257341
0.601491
-0.000779361
0.572922
-0.00141459
0.545819
-0.0021429
0.52006
-0.00291043
0.495643
-0.00377876
0.472523
-0.00477484
0.450576
-0.005824
0.429734
-0.00690681
0.410032
-0.00814233
0.391441
-0.00932948
0.373622
-0.0103772
0.356779
-0.0114962
0.340852
-0.0126144
0.325526
-0.013711
0.311113
-0.0148448
0.297541
-0.0160151
0.284626
-0.0171009
0.27222
-0.0180278
0.260377
-0.0188092
0.249147
-0.0195067
0.238514
-0.0201785
0.228431
-0.0207536
0.218734
-0.0211796
0.209428
-0.0215167
0.200533
-0.0217848
0.192032
-0.0218929
0.183848
-0.0217933
0.175981
-0.0215506
0.168427
-0.021184
0.161166
-0.0206701
0.154164
-0.0200683
0.147399
-0.019412
0.140867
-0.0186471
0.134532
-0.0177275
0.128357
-0.0166007
0.122414
-0.0148521
0.115012
-0.0120019
0.104579
-0.00673259
0.0826341
0.0345268
0.00350774
0.938087
0.00256695
0.943547
0.00209513
0.897883
0.00175759
0.85303
0.00144005
0.810589
0.00107939
0.770955
0.000563421
0.733632
-1.15492e-06
0.69823
-0.000611707
0.664428
-0.00134858
0.632463
-0.00206875
0.602211
-0.00275518
0.573608
-0.00345334
0.546517
-0.00417746
0.520784
-0.00497314
0.496438
-0.00576991
0.47332
-0.00652963
0.451336
-0.00729623
0.4305
-0.00803596
0.410771
-0.00873346
0.392139
-0.009649
0.374538
-0.0106151
0.357746
-0.0116114
0.341848
-0.0127072
0.326622
-0.0137653
0.312171
-0.014703
0.298478
-0.015561
0.285484
-0.0164716
0.273131
-0.0174398
0.261346
-0.0184317
0.250139
-0.0193729
0.239456
-0.0201665
0.229224
-0.0208452
0.219413
-0.0214524
0.210035
-0.0219304
0.201012
-0.0222194
0.192321
-0.0223824
0.184012
-0.0225004
0.176099
-0.0225255
0.168452
-0.0224063
0.161046
-0.0221361
0.153894
-0.0216595
0.146923
-0.0209712
0.140179
-0.0201609
0.133722
-0.0193642
0.12756
-0.018169
0.121218
-0.0163913
0.113235
-0.0132104
0.101398
-0.00735837
0.0767821
0.0271685
0.00380489
0.934282
0.00328389
0.944068
0.00280673
0.89836
0.00209699
0.853739
0.00130115
0.811385
0.000476268
0.77178
-8.57633e-05
0.734194
-0.00050378
0.698648
-0.000872969
0.664797
-0.00122261
0.632812
-0.00164998
0.602639
-0.00214524
0.574104
-0.00274772
0.547119
-0.00338581
0.521422
-0.0040667
0.497119
-0.00487796
0.474131
-0.00582268
0.45228
-0.0068649
0.431543
-0.00805354
0.41196
-0.00930236
0.393387
-0.0104795
0.375715
-0.0116447
0.358911
-0.0127512
0.342955
-0.0138813
0.327752
-0.0150717
0.313361
-0.0163658
0.299772
-0.0176726
0.286791
-0.0188678
0.274326
-0.0199039
0.262382
-0.0207883
0.251024
-0.021564
0.240231
-0.0223091
0.229969
-0.0229725
0.220076
-0.0234856
0.210548
-0.023882
0.201408
-0.0242359
0.192675
-0.0244961
0.184272
-0.0245287
0.176131
-0.0243457
0.168269
-0.0240161
0.160717
-0.0235862
0.153464
-0.023118
0.146454
-0.0225956
0.139656
-0.02195
0.133076
-0.0212788
0.126889
-0.0199458
0.119885
-0.0179549
0.111244
-0.0141724
0.0976152
-0.00755412
0.0701638
0.0196143
0.00311639
0.931166
0.00226669
0.944917
0.00170942
0.898917
0.00124574
0.854203
0.000886112
0.811744
0.000474561
0.772191
-7.14229e-05
0.73474
-0.000717539
0.699294
-0.00139102
0.665471
-0.00193736
0.633359
-0.00250091
0.603202
-0.00306138
0.574664
-0.00360667
0.547664
-0.00425215
0.522068
-0.00494234
0.49781
-0.00564392
0.474833
-0.00633337
0.45297
-0.00701259
0.432222
-0.00766689
0.412614
-0.00840778
0.394128
-0.00930899
0.376616
-0.0103657
0.359968
-0.0115375
0.344127
-0.012753
0.328968
-0.0138996
0.314508
-0.0149184
0.300791
-0.015896
0.287769
-0.0169275
0.275358
-0.0180247
0.263479
-0.0191649
0.252164
-0.020287
0.241353
-0.0212813
0.230964
-0.0221502
0.220945
-0.0229472
0.211345
-0.0236501
0.202111
-0.0241471
0.193172
-0.0244523
0.184577
-0.024721
0.1764
-0.0249691
0.168517
-0.025105
0.160853
-0.0250484
0.153407
-0.0247566
0.146163
-0.0242881
0.139188
-0.0237558
0.132544
-0.0230686
0.126202
-0.0217107
0.118528
-0.0194262
0.108959
-0.0147418
0.0929308
-0.00683678
0.0622588
0.0127776
0.0033066
0.927859
0.00283102
0.945393
0.00227164
0.899477
0.00143462
0.85504
0.000668898
0.81251
0.00011162
0.772749
-0.000220964
0.735072
-0.000426453
0.6995
-0.00062998
0.665674
-0.000907083
0.633636
-0.00117091
0.603466
-0.00153772
0.575031
-0.00193844
0.548065
-0.00235962
0.522489
-0.00287064
0.498321
-0.00354172
0.475504
-0.00439527
0.453823
-0.00540582
0.433232
-0.00654126
0.41375
-0.00774992
0.395337
-0.00891485
0.377781
-0.0100047
0.361057
-0.0111263
0.345248
-0.0123612
0.330203
-0.0137606
0.315907
-0.015277
0.302308
-0.0168274
0.289319
-0.0182988
0.276829
-0.0196204
0.264801
-0.0207877
0.253331
-0.0218322
0.242398
-0.0228199
0.231952
-0.0237439
0.221869
-0.0245388
0.21214
-0.0251946
0.202767
-0.0258185
0.193796
-0.0264135
0.185172
-0.0267966
0.176783
-0.026905
0.168626
-0.0268235
0.160771
-0.0266619
0.153245
-0.0264771
0.145978
-0.0262332
0.138944
-0.0260164
0.132327
-0.02521
0.125395
-0.0237555
0.117073
-0.0207432
0.105947
-0.014782
0.0869696
-0.00529336
0.0527701
0.0074842
0.00312763
0.924732
0.00227658
0.946244
0.00172648
0.900027
0.00121471
0.855552
0.000942205
0.812783
0.000544159
0.773147
0.000106357
0.73551
-0.000364145
0.69997
-0.000706799
0.666017
-0.00103465
0.633964
-0.00134388
0.603775
-0.00163308
0.57532
-0.00200665
0.548439
-0.00243125
0.522914
-0.00287568
0.498765
-0.00331319
0.475941
-0.00378874
0.454299
-0.00432226
0.433766
-0.00488828
0.414316
-0.0055725
0.396021
-0.00654008
0.378749
-0.00776608
0.362283
-0.00909349
0.346576
-0.0104232
0.331533
-0.0117059
0.31719
-0.0129361
0.303538
-0.0141373
0.29052
-0.0153818
0.278074
-0.0167447
0.266163
-0.0181893
0.254776
-0.0196514
0.24386
-0.0210379
0.233338
-0.0223028
0.223134
-0.023481
0.213318
-0.024594
0.20388
-0.0255181
0.19472
-0.02621
0.185864
-0.0268242
0.177397
-0.0274477
0.169249
-0.0280012
0.161325
-0.0283469
0.153591
-0.028425
0.146056
-0.028334
0.138853
-0.0281955
0.132189
-0.0273308
0.124531
-0.0256528
0.115395
-0.0219711
0.102265
-0.0145519
0.0795504
-0.00378486
0.0420031
0.00369933
0.00368096
0.921051
0.00266265
0.947262
0.00203198
0.900657
0.0012572
0.856327
0.000764378
0.813275
0.00036563
0.773546
0.000257736
0.735618
0.000290285
0.699938
0.000281176
0.666026
0.000373718
0.633871
0.000378385
0.603771
0.000339472
0.575359
0.000276592
0.548502
0.000126109
0.523064
-0.000188708
0.49908
-0.000657262
0.47641
-0.00129782
0.454939
-0.00216089
0.434629
-0.00319201
0.415347
-0.00425606
0.397085
-0.0052544
0.379747
-0.00627717
0.363306
-0.00744543
0.347744
-0.00882291
0.33291
-0.0104165
0.318783
-0.0122038
0.305325
-0.014116
0.292432
-0.0160204
0.279978
-0.0177753
0.267918
-0.0193877
0.256388
-0.0208932
0.245365
-0.0223142
0.234759
-0.0236844
0.224504
-0.0249646
0.214598
-0.0260931
0.205008
-0.0271585
0.195786
-0.028219
0.186924
-0.0291344
0.178313
-0.0297739
0.169889
-0.0301706
0.161721
-0.0304539
0.153874
-0.0307116
0.146314
-0.031048
0.139189
-0.0308872
0.132028
-0.0299379
0.123581
-0.0277477
0.113205
-0.0231193
0.0976368
-0.0148171
0.0712482
-0.00254711
0.0297331
0.00115222
0.00345486
0.917596
0.00218156
0.948536
0.00153385
0.901305
0.000937596
0.856923
0.000630374
0.813583
0.000443224
0.773733
0.000235575
0.735826
0.000176724
0.699996
0.000100929
0.666102
7.89511e-05
0.633893
0.00015584
0.603694
0.000170672
0.575344
0.000175433
0.548497
0.000168145
0.523071
0.000133206
0.499115
3.70113e-05
0.476506
-9.76641e-05
0.455074
-0.000302697
0.434834
-0.000699293
0.415744
-0.00139707
0.397783
-0.00241777
0.380768
-0.00367227
0.364561
-0.00505551
0.349127
-0.00652483
0.334379
-0.00802993
0.320289
-0.00950509
0.3068
-0.0109606
0.293888
-0.01252
0.281537
-0.0142887
0.269687
-0.0162016
0.258301
-0.0181479
0.247312
-0.0200777
0.236689
-0.0219181
0.226345
-0.0236492
0.216329
-0.025335
0.206694
-0.0268832
0.197334
-0.0281964
0.188237
-0.0293405
0.179457
-0.0304534
0.171002
-0.0315402
0.162808
-0.0324722
0.154806
-0.0332013
0.147043
-0.033807
0.139795
-0.0336684
0.131889
-0.0327942
0.122707
-0.0302132
0.110624
-0.0242164
0.0916399
-0.0133576
0.0603895
-0.00154915
0.0179246
-0.000396927
0.00323592
0.91436
0.00176922
0.950002
0.000888193
0.902186
0.000311063
0.8575
-5.95111e-05
0.813953
-0.000155262
0.773828
-9.20408e-05
0.735762
0.000181906
0.699722
0.00061582
0.665668
0.0010387
0.63347
0.00146147
0.603271
0.00186902
0.574937
0.00219569
0.54817
0.00241046
0.522857
0.00249321
0.499032
0.00242245
0.476577
0.00207498
0.455422
0.00150652
0.435402
0.000882353
0.416368
0.000251906
0.398414
-0.000525677
0.381545
-0.00149949
0.365535
-0.00268522
0.350313
-0.00413269
0.335827
-0.00590255
0.322058
-0.00801388
0.308912
-0.0103792
0.296253
-0.0127769
0.283935
-0.0150539
0.271964
-0.0172137
0.260461
-0.0193256
0.249424
-0.0213524
0.238716
-0.0233222
0.228314
-0.0252477
0.218255
-0.0270222
0.208469
-0.0286834
0.198995
-0.0303278
0.189882
-0.0319229
0.181052
-0.0333047
0.172384
-0.0344145
0.163918
-0.0353629
0.155755
-0.0363317
0.148012
-0.037045
0.140508
-0.036989
0.131833
-0.0359369
0.121655
-0.0325587
0.107246
-0.0244215
0.0835027
-0.0103039
0.0462719
-0.00130411
0.00892477
-0.00170104
0.00233451
0.912026
0.00077505
0.951562
-0.000211193
0.903172
-0.000904336
0.858193
-0.00114937
0.814198
-0.00130178
0.773981
-0.00116247
0.735623
-0.000992549
0.699553
-0.000708344
0.665384
-0.00031372
0.633076
0.000147611
0.60281
0.000663055
0.574421
0.00121421
0.547619
0.00177666
0.522294
0.00228896
0.49852
0.00278478
0.476081
0.00326417
0.454942
0.00349092
0.435176
0.00330849
0.41655
0.00275588
0.398966
0.00194149
0.38236
0.000846496
0.36663
-0.000527026
0.351686
-0.00209303
0.337393
-0.00370511
0.323671
-0.00533339
0.31054
-0.00704296
0.297963
-0.00898118
0.285873
-0.0112442
0.274227
-0.0137469
0.262964
-0.0162978
0.251974
-0.0188763
0.241294
-0.0214206
0.230859
-0.023844
0.220678
-0.0262281
0.210853
-0.0285311
0.201298
-0.0306374
0.191988
-0.0324982
0.182913
-0.0342532
0.174139
-0.0360019
0.165667
-0.0377017
0.157455
-0.0393326
0.149642
-0.0402004
0.141376
-0.04022
0.131853
-0.0386384
0.120073
-0.0334821
0.102089
-0.0229293
0.0729499
-0.00673158
0.0300741
-0.000950926
0.00314412
-0.00265197
0.00170636
0.910319
-0.000364183
0.953632
-0.0017104
0.904519
-0.00269504
0.859178
-0.00287843
0.814382
-0.00281155
0.773914
-0.00241751
0.735229
-0.00191751
0.699053
-0.00123226
0.664698
-0.000405845
0.632249
0.000468839
0.601935
0.00130701
0.573583
0.00209572
0.54683
0.00281352
0.521576
0.00345784
0.497875
0.00384904
0.47569
0.0040159
0.454775
0.00413021
0.435061
0.00420874
0.416472
0.00414335
0.399032
0.00379947
0.382704
0.00317368
0.367255
0.00219127
0.352669
0.000810296
0.338774
-0.00112006
0.325601
-0.0035272
0.312947
-0.00626157
0.300697
-0.0091248
0.288737
-0.0119373
0.277039
-0.0146832
0.26571
-0.017477
0.254768
-0.0202291
0.244046
-0.0229202
0.23355
-0.0256031
0.223361
-0.0281563
0.213406
-0.0305545
0.203696
-0.0328862
0.19432
-0.0352302
0.185257
-0.0374661
0.176374
-0.0394562
0.167657
-0.0412421
0.159241
-0.0428401
0.15124
-0.0435886
0.142125
-0.0434758
0.13174
-0.0406335
0.117231
-0.0325893
0.0940453
-0.0178927
0.0582533
-0.00367585
0.0158573
-0.000195256
-0.000336476
-0.00284722
-0.00074729
0.911067
-0.00291736
0.955802
-0.00384402
0.905445
-0.00490584
0.86024
-0.00538365
0.814859
-0.005471
0.774001
-0.00514736
0.734905
-0.00473308
0.698638
-0.00412745
0.664093
-0.00337509
0.631497
-0.00246409
0.601024
-0.00143965
0.572558
-0.00032756
0.545718
0.000836741
0.520412
0.00205046
0.496662
0.00337056
0.47437
0.00452117
0.453625
0.00525083
0.434332
0.0055641
0.416158
0.00554371
0.399052
0.00517094
0.383076
0.00442885
0.367997
0.00338042
0.353717
0.00204191
0.340112
0.000589812
0.327053
-0.00106051
0.314597
-0.00297951
0.302616
-0.00523664
0.290994
-0.0079647
0.279768
-0.0110683
0.268813
-0.0142818
0.257982
-0.0175756
0.24734
-0.0208944
0.236869
-0.0241024
0.226569
-0.027261
0.216564
-0.0303843
0.206819
-0.0333852
0.197321
-0.0361157
0.187987
-0.0386423
0.178901
-0.0411308
0.170145
-0.0437353
0.161845
-0.0456241
0.153129
-0.0466768
0.143178
-0.0458128
0.130876
-0.0412033
0.112622
-0.0306576
0.0834996
-0.012053
0.0396487
-0.00259178
0.00639608
-0.000332539
-0.00259572
-0.00317976
-0.0013449
0.912411
-0.00522732
0.959685
-0.00755543
0.907773
-0.00854519
0.861229
-0.00871493
0.815029
-0.00847648
0.773763
-0.00783323
0.734262
-0.00704443
0.697849
-0.00611428
0.663163
-0.00506339
0.630446
-0.00385441
0.599815
-0.00255597
0.57126
-0.00122365
0.544386
0.000129618
0.519059
0.00129086
0.4955
0.00227525
0.473385
0.00334522
0.452555
0.00447165
0.433205
0.0054532
0.415177
0.00619225
0.398313
0.00663147
0.382637
0.00661242
0.368016
0.00607765
0.354252
0.00492851
0.341261
0.00306701
0.328914
0.000652308
0.317012
-0.00222503
0.305493
-0.00545021
0.294219
-0.00872216
0.283039
-0.0120034
0.272094
-0.0154482
0.261427
-0.0189674
0.250859
-0.0224775
0.240379
-0.0259982
0.23009
-0.029421
0.219987
-0.0326663
0.210065
-0.0357538
0.200408
-0.0388418
0.191075
-0.0419155
0.181975
-0.0448482
0.173078
-0.0474997
0.164497
-0.0491127
0.154742
-0.0496253
0.14369
-0.0473792
0.12863
-0.0396186
0.104861
-0.0240261
0.0679071
-0.00642674
0.0220493
-0.00121618
0.00118552
-5.18972e-05
-0.00376
-0.00323166
-0.0060029
0.918414
-0.00898619
0.962668
-0.0106046
0.909392
-0.0121491
0.862774
-0.0127081
0.815588
-0.0127247
0.773779
-0.0122499
0.733787
-0.0114676
0.697067
-0.0105669
0.662262
-0.00960992
0.629489
-0.00847343
0.598679
-0.00711827
0.569905
-0.00558377
0.542851
-0.00385341
0.517329
-0.00180329
0.49345
0.000307685
0.471274
0.00204627
0.450816
0.00346185
0.43179
0.00460478
0.414034
0.00538769
0.39753
0.00580973
0.382215
0.00586095
0.367965
0.00552249
0.354591
0.00484217
0.341942
0.00385095
0.329906
0.00235387
0.318509
0.000410697
0.307437
-0.00199042
0.29662
-0.00505512
0.286104
-0.00868044
0.27572
-0.0125606
0.265307
-0.0165952
0.254894
-0.0207105
0.244494
-0.0247819
0.234161
-0.0287919
0.223997
-0.0327722
0.214045
-0.0367174
0.204353
-0.0404203
0.194778
-0.0438292
0.185384
-0.0472213
0.17647
-0.0499791
0.167254
-0.0519509
0.156714
-0.0521096
0.143849
-0.048048
0.124568
-0.037003
0.093816
-0.0162027
0.0471068
-0.00374383
0.00959039
-0.00073743
-0.00182089
-2.39341e-06
-0.00449503
-0.00323405
-0.00545823
0.923873
-0.0126108
0.969821
-0.0171884
0.913969
-0.0182413
0.863827
-0.0181143
0.815461
-0.0174952
0.77316
-0.0164334
0.732726
-0.0151649
0.695799
-0.0138778
0.660975
-0.0126103
0.628221
-0.0113085
0.597377
-0.00985046
0.568447
-0.00828162
0.541283
-0.00668398
0.515731
-0.00510346
0.49187
-0.00326867
0.469439
-0.00105338
0.448601
0.00120879
0.429528
0.00332599
0.411917
0.00517806
0.395678
0.00663982
0.380753
0.00751964
0.367085
0.00774087
0.354369
0.00715771
0.342525
0.00577565
0.331288
0.00379003
0.320495
0.00108903
0.310138
-0.00221357
0.299923
-0.00580598
0.289697
-0.00958606
0.2795
-0.0136133
0.269334
-0.0178686
0.259149
-0.0222574
0.248883
-0.0266719
0.238576
-0.0310315
0.228357
-0.0352253
0.218239
-0.039163
0.208291
-0.043038
0.198653
-0.04699
0.189336
-0.0508996
0.18038
-0.0537096
0.170064
-0.0550358
0.15804
-0.0532881
0.142101
-0.0455027
0.116783
-0.0288459
0.0771592
-0.00863192
0.0268928
-0.00200529
0.00296376
-0.000432711
-0.00339347
-5.72235e-05
-0.00487052
-0.00329127
-0.0140318
0.937904
-0.0173219
0.973111
-0.0203147
0.916962
-0.0224556
0.865968
-0.023042
0.816047
-0.0227856
0.772904
-0.0218761
0.731816
-0.0206972
0.69462
-0.0194693
0.659747
-0.0182199
0.626972
-0.0169642
0.596121
-0.0155405
0.567023
-0.0138376
0.53958
-0.0117007
0.513594
-0.00922276
0.489392
-0.0067973
0.467014
-0.00446465
0.446268
-0.00216775
0.427231
2.00403e-05
0.409729
0.00200088
0.393697
0.00373791
0.379016
0.00508476
0.365739
0.00599576
0.353458
0.00645482
0.342066
0.00624707
0.331496
0.00522816
0.321514
0.00360801
0.311758
0.00132178
0.302209
-0.00178547
0.292804
-0.00564766
0.283362
-0.010068
0.273754
-0.0148181
0.263899
-0.0197175
0.253782
-0.0246967
0.243555
-0.0296234
0.233283
-0.03452
0.223135
-0.039473
0.213244
-0.0442357
0.203416
-0.0487188
0.193819
-0.0523921
0.184053
-0.0549738
0.172646
-0.0560052
0.159072
-0.0526907
0.138787
-0.0417884
0.105881
-0.0191281
0.0544989
-0.00496297
0.0127277
-0.0014737
-0.000525504
-0.000552399
-0.00431477
-0.000230718
-0.0051922
-0.00352199
-0.0143484
0.952253
-0.0231891
0.981951
-0.0308508
0.924624
-0.0315742
0.866691
-0.0309773
0.815451
-0.0295876
0.771514
-0.0276345
0.729863
-0.0255864
0.692572
-0.0236999
0.657861
-0.0220433
0.625315
-0.0205799
0.594658
-0.0191602
0.565603
-0.0177413
0.538161
-0.0162662
0.512119
-0.0143747
0.4875
-0.0117908
0.46443
-0.00875242
0.44323
-0.00549023
0.423968
-0.00219652
0.406435
0.000933811
0.390567
0.0035896
0.37636
0.00570361
0.363625
0.00712937
0.352033
0.00771277
0.341482
0.00753139
0.331677
0.00647291
0.322572
0.00437174
0.313859
0.00141873
0.305162
-0.0021839
0.296406
-0.00631227
0.28749
-0.0108411
0.278283
-0.0157508
0.268809
-0.0209839
0.259015
-0.0263283
0.248899
-0.031708
0.238663
-0.0369552
0.228383
-0.0418286
0.218117
-0.0465589
0.208146
-0.0515897
0.198849
-0.0557791
0.188242
-0.0583178
0.175185
-0.0571822
0.157936
-0.0497797
0.131384
-0.0325178
0.0886187
-0.0103886
0.0323697
-0.00276321
0.0051023
-0.000940591
-0.00234812
-0.000431372
-0.00482399
-0.000243652
-0.00537992
-0.00376564
-0.0257471
0.978
-0.0307513
0.986956
-0.0344825
0.928355
-0.036672
0.868881
-0.0374273
0.816206
-0.0362379
0.770325
-0.0342399
0.727865
-0.0320554
0.690387
-0.0299949
0.6558
-0.0282364
0.623557
-0.0267532
0.593175
-0.0253781
0.564228
-0.0237741
0.536557
-0.0218546
0.510199
-0.0197743
0.48542
-0.017571
0.462227
-0.0149104
0.440569
-0.0119096
0.420968
-0.00862081
0.403146
-0.00518725
0.387133
-0.00179039
0.372964
0.00126087
0.360573
0.00380421
0.349489
0.00572822
0.339558
0.00680798
0.330597
0.00701841
0.322362
0.00627886
0.314598
0.00450173
0.306939
0.00170333
0.299205
-0.00204741
0.291241
-0.00683971
0.283075
-0.012291
0.27426
-0.0179955
0.26472
-0.0239185
0.254822
-0.0299338
0.244678
-0.0360338
0.234483
-0.0420317
0.224115
-0.0478994
0.214014
-0.053009
0.203959
-0.0567444
0.191978
-0.0586858
0.177126
-0.0559254
0.155176
-0.0449114
0.12037
-0.0214835
0.0651908
-0.00549024
0.0163764
-0.00110591
0.000717978
0.00020595
-0.00365999
0.000284941
-0.00490298
2.18523e-05
-0.00511683
-0.00374379
-0.0243289
1.00233
-0.0369962
0.999623
-0.0488758
0.940235
-0.050125
0.87013
-0.0473858
0.813467
-0.0450736
0.768013
-0.0416775
0.724469
-0.0379488
0.686658
-0.0345463
0.652398
-0.0320855
0.621096
-0.0302852
0.591374
-0.0291005
0.563043
-0.0280366
0.535493
-0.026805
0.508968
-0.0248716
0.483487
-0.0223533
0.459709
-0.0193205
0.437536
-0.0157484
0.417396
-0.0117189
0.399117
-0.00751104
0.382925
-0.00325842
0.368711
0.000740332
0.356575
0.00389128
0.346338
0.00611985
0.33733
0.00749685
0.32922
0.00783795
0.322021
0.00697823
0.315458
0.00483722
0.30908
0.0016803
0.302362
-0.00233786
0.295259
-0.007248
0.287985
-0.0128673
0.27988
-0.018946
0.270798
-0.0252289
0.261105
-0.0318667