/*--------------------------------*- C++ -*----------------------------------*\
| =========                 |                                                 |
| \\      /  F ield         | OpenFOAM: The Open Source CFD Toolbox           |
|  \\    /   O peration     | Version:  v1912                                 |
|   \\  /    A nd           | Website:  www.openfoam.com                      |
|    \\/     M anipulation  |                                                 |
\*---------------------------------------------------------------------------*/
FoamFile
{
    version     2.0;
    format      ascii;
    class       volVectorField;
    location    "0.36";
    object      U;
}
// * * * * * * * * * * * * * * * * * * * * * * * * * * * * * * * * * * * * * //

dimensions      [0 1 -1 0 0 0 0];


internalField   nonuniform List<vector> 
6600
(
(39.8398 -0.0454163 0)
(40.0927 -0.0602115 1.70757e-20)
(40.1541 0.00872061 1.20023e-18)
(40.185 0.0875453 0)
(40.2267 0.173334 1.47463e-18)
(40.2713 0.252984 4.96143e-20)
(40.3192 0.33683 -5.5089e-20)
(40.3626 0.428252 -5.98535e-20)
(40.405 0.515867 1.21732e-18)
(40.454 0.596887 -1.42578e-19)
(40.5117 0.676799 0)
(40.5449 0.760754 -1.45003e-18)
(40.5759 0.859082 0)
(40.611 0.973852 -1.50732e-18)
(40.6487 1.0992 -2.0455e-18)
(40.6992 1.22484 -1.06015e-18)
(40.742 1.38246 0)
(40.778 1.57005 0)
(40.8286 1.78339 1.56296e-18)
(40.8556 2.03387 -1.31872e-18)
(40.9086 2.31333 -1.9643e-19)
(40.9171 2.70294 -7.05018e-19)
(40.9004 3.1063 -1.21243e-18)
(40.9535 3.49006 2.34754e-19)
(40.9998 3.92606 8.92823e-19)
(41.013 4.42563 0)
(41.0147 4.96719 1.78004e-18)
(41.0372 5.55542 0)
(41.0651 6.19099 -5.65281e-19)
(41.0721 6.88465 -2.26933e-19)
(41.0987 7.62375 -4.50759e-19)
(41.1061 8.41795 -8.21902e-20)
(41.1027 9.2943 -1.08146e-19)
(41.1565 10.2649 -1.29877e-19)
(41.2292 11.319 4.91824e-19)
(41.2701 12.4393 -5.68938e-19)
(41.291 13.6447 -5.44783e-19)
(41.3443 14.9678 -1.52775e-18)
(41.4142 16.3888 1.36061e-18)
(41.4976 17.9131 -1.76781e-18)
(41.5536 19.548 -1.22848e-18)
(41.6154 21.3137 0)
(41.759 23.1904 1.75221e-18)
(41.9489 25.1926 -3.73771e-18)
(42.1067 27.2841 0)
(42.3432 29.6227 -4.33555e-18)
(42.4761 31.879 -1.01271e-17)
(43.0685 34.5923 0)
(41.6522 36.1962 0)
(31.5492 29.8874 -4.78587e-18)
(39.7346 -0.0447939 1.00417e-18)
(40.1533 -0.0620925 -1.05432e-18)
(40.203 0.0305547 0)
(40.2412 0.114765 -1.988e-20)
(40.2854 0.20112 1.38421e-18)
(40.3294 0.280318 4.74204e-20)
(40.3742 0.350949 -8.22648e-22)
(40.4275 0.422526 -5.76131e-20)
(40.4839 0.497551 0)
(40.5382 0.58172 -2.11551e-18)
(40.5884 0.686042 -7.54258e-20)
(40.6438 0.786542 1.24545e-18)
(40.693 0.886631 1.26238e-18)
(40.741 0.998507 8.9634e-19)
(40.7859 1.15123 2.70052e-21)
(40.8272 1.32655 1.15326e-19)
(40.8811 1.51662 -9.08681e-19)
(40.9188 1.73635 0)
(40.9548 1.9833 0)
(40.9829 2.25779 1.3287e-18)
(41.0296 2.52698 1.56902e-19)
(41.0799 2.81564 -7.57643e-19)
(41.1129 3.17588 -5.92719e-19)
(41.1661 3.58763 -5.90739e-19)
(41.2433 4.02721 -3.97333e-19)
(41.321 4.49879 -1.95005e-19)
(41.378 5.02848 -3.04351e-19)
(41.4424 5.6221 -1.79885e-19)
(41.5286 6.26796 4.90089e-19)
(41.6027 6.96375 3.8859e-19)
(41.6846 7.73575 -3.40548e-19)
(41.8001 8.59 1.83102e-19)
(41.9395 9.51116 -5.00419e-19)
(42.0554 10.4795 2.70668e-19)
(42.1122 11.5199 5.54603e-19)
(42.1972 12.6484 5.81931e-19)
(42.3294 13.8869 -1.75512e-18)
(42.49 15.2164 3.52391e-19)
(42.672 16.6329 1.34072e-18)
(42.8676 18.1507 1.65454e-18)
(43.1068 19.7696 0)
(43.3838 21.4891 0)
(43.6564 23.3154 2.43812e-18)
(43.958 25.2915 -2.80428e-18)
(44.3389 27.3253 -7.84369e-18)
(44.807 29.5421 4.47758e-18)
(45.2157 31.7268 1.29531e-17)
(46.0179 34.2629 0)
(44.7842 35.3915 -1.14563e-17)
(33.1159 28.9342 5.2614e-18)
(39.6499 -0.0283934 -5.11062e-20)
(40.2564 -0.106786 1.07615e-18)
(40.2962 0.0167056 1.09306e-18)
(40.3349 0.0901396 -4.22161e-22)
(40.3838 0.174369 -1.47631e-19)
(40.432 0.258778 4.5663e-20)
(40.4833 0.348516 0)
(40.5253 0.447538 0)
(40.5719 0.533441 0)
(40.6192 0.610976 1.12028e-18)
(40.666 0.688034 -6.96238e-20)
(40.7185 0.786531 -1.25324e-18)
(40.7704 0.907616 -6.78806e-19)
(40.8233 1.03957 1.28992e-18)
(40.892 1.16967 6.81318e-19)
(40.9609 1.3321 -9.6557e-20)
(41.0292 1.52756 1.77682e-18)
(41.1068 1.74243 -7.82493e-19)
(41.1964 1.98582 -8.02609e-19)
(41.2755 2.2931 0)
(41.3636 2.63221 -3.99734e-19)
(41.4319 3.02996 5.89993e-19)
(41.4815 3.43663 5.99817e-19)
(41.5736 3.84811 5.98186e-19)
(41.6697 4.3286 4.92284e-19)
(41.7649 4.85805 8.0899e-20)
(41.856 5.41539 -3.6254e-20)
(41.9639 6.01266 1.38228e-19)
(42.0837 6.68268 8.60684e-21)
(42.2039 7.40279 5.3867e-20)
(42.3507 8.16472 -9.61342e-20)
(42.4832 8.98008 0)
(42.5978 9.8685 1.18903e-18)
(42.776 10.8404 -4.81142e-19)
(43.0158 11.8926 -1.20386e-18)
(43.2504 13.0157 -2.77664e-18)
(43.4782 14.2011 5.58129e-19)
(43.746 15.4797 1.37317e-18)
(44.052 16.8524 6.61118e-19)
(44.3992 18.3276 0)
(44.7388 19.8841 3.96459e-18)
(45.1427 21.5513 0)
(45.6707 23.3001 0)
(46.2288 25.1635 7.64293e-18)
(46.8014 27.0887 4.43016e-18)
(47.4957 29.2184 -6.87043e-18)
(48.1456 31.347 -7.31695e-18)
(49.0928 33.6526 0)
(47.8042 34.3161 -6.81848e-18)
(34.5366 27.487 7.39043e-18)
(39.5729 -0.00972105 -9.599e-19)
(40.3549 -0.0719627 7.54203e-21)
(40.3806 0.0799003 -1.12293e-18)
(40.4292 0.140054 -1.08386e-18)
(40.4723 0.217369 -1.26974e-18)
(40.5109 0.288165 -6.22454e-19)
(40.5592 0.359659 -4.60867e-20)
(40.6124 0.432694 0)
(40.6616 0.516894 8.05444e-19)
(40.728 0.618445 9.19471e-19)
(40.7948 0.718267 -6.27145e-20)
(40.8644 0.817766 -6.45996e-20)
(40.9354 0.932999 -5.3296e-19)
(40.9991 1.09679 -1.78476e-19)
(41.0661 1.28362 -4.66009e-20)
(41.149 1.47502 -7.84233e-20)
(41.2339 1.68778 -9.59696e-20)
(41.3017 1.93894 8.7024e-19)
(41.3758 2.1973 9.91789e-19)
(41.4542 2.4705 0)
(41.5537 2.76602 1.93378e-19)
(41.6723 3.08852 0)
(41.7506 3.48462 0)
(41.8607 3.91043 -1.99824e-20)
(42.032 4.35546 -7.28627e-20)
(42.1909 4.86619 2.16889e-20)
(42.3266 5.42949 3.18126e-20)
(42.4726 6.03006 -1.48135e-19)
(42.6581 6.67545 0)
(42.8363 7.3837 0)
(43.025 8.16783 -7.15596e-19)
(43.2774 9.03122 0)
(43.5905 9.95921 -2.40964e-19)
(43.8929 10.9303 -1.42098e-18)
(44.1239 11.9582 2.40833e-18)
(44.3812 13.0584 3.42983e-18)
(44.7141 14.2588 -5.15317e-18)
(45.1035 15.546 1.96514e-18)
(45.5299 16.9018 5.84528e-19)
(46.0041 18.3423 6.85582e-19)
(46.5599 19.8591 -9.17197e-18)
(47.1267 21.4401 0)
(47.7192 23.1162 0)
(48.4292 24.9049 -4.35213e-18)
(49.2537 26.7246 -6.57465e-18)
(50.1258 28.6735 -1.18253e-18)
(50.9975 30.6944 -1.02409e-17)
(51.9634 32.7208 1.13155e-17)
(50.5019 32.9296 1.49702e-17)
(35.5781 25.7368 0)
(39.4891 0.0100349 -3.29191e-21)
(40.47 -0.114794 8.68234e-19)
(40.4913 0.0556625 9.33733e-19)
(40.54 0.101885 1.12305e-18)
(40.5861 0.180662 0)
(40.6296 0.270121 6.15232e-20)
(40.6787 0.358272 0)
(40.721 0.45186 -4.36306e-20)
(40.7689 0.531201 -1.4715e-18)
(40.8261 0.608465 -9.1713e-19)
(40.8971 0.710573 5.50237e-20)
(40.9638 0.835383 5.4604e-20)
(41.0404 0.968189 -6.07689e-20)
(41.1278 1.09604 -5.43962e-19)
(41.2169 1.2604 -1.04659e-18)
(41.3099 1.45779 6.55092e-20)
(41.4289 1.67343 -9.627e-19)
(41.5722 1.914 5.13546e-20)
(41.708 2.20629 -2.87374e-19)
(41.838 2.53961 -8.17791e-20)
(41.9702 2.90331 2.49133e-19)
(42.1225 3.30046 0)
(42.2485 3.70551 0)
(42.3749 4.15033 2.06934e-19)
(42.5315 4.6417 9.62693e-20)
(42.7345 5.15837 -5.70538e-19)
(42.9367 5.73123 1.08536e-19)
(43.1426 6.3526 0)
(43.3604 7.03509 -2.74324e-19)
(43.6126 7.75548 3.05571e-19)
(43.9005 8.51549 7.27324e-19)
(44.1785 9.32709 2.05389e-18)
(44.4256 10.201 -7.2199e-19)
(44.7335 11.1468 1.1027e-18)
(45.1475 12.1657 -1.22707e-18)
(45.5949 13.2615 0)
(46.0521 14.3995 1.92114e-18)
(46.555 15.5965 6.13501e-18)
(47.1068 16.8723 -3.34695e-18)
(47.7096 18.2366 -4.09347e-18)
(48.3479 19.6696 5.23262e-18)
(49.0882 21.1746 0)
(49.9464 22.7207 0)
(50.8181 24.3484 -6.20207e-18)
(51.7429 26.0139 1.36407e-17)
(52.8066 27.8445 3.66644e-18)
(53.8691 29.7739 5.98859e-18)
(54.8154 31.5132 -1.31969e-17)
(52.9502 31.3071 8.91465e-19)
(36.2358 23.7199 -1.97549e-17)
(39.4224 0.0148457 7.723e-19)
(40.5669 -0.089028 -8.3959e-20)
(40.5841 0.105908 -9.52018e-19)
(40.6353 0.136794 4.5563e-19)
(40.6675 0.215251 0)
(40.7039 0.287839 6.03075e-19)
(40.7499 0.348566 -1.88626e-20)
(40.81 0.426313 -5.81434e-19)
(40.8788 0.515535 7.13838e-19)
(40.9564 0.617313 0)
(41.0442 0.723775 4.31823e-20)
(41.1363 0.847652 2.75563e-19)
(41.231 1.0074 -3.6252e-19)
(41.3286 1.19225 4.88374e-20)
(41.4378 1.37746 4.6707e-19)
(41.5524 1.58219 -4.4834e-20)
(41.6606 1.81951 3.28547e-19)
(41.7775 2.07324 -3.21422e-20)
(41.9086 2.32237 4.84847e-21)
(42.0495 2.60746 -1.17903e-19)
(42.2066 2.91753 -2.05813e-19)
(42.3938 3.27413 1.48739e-20)
(42.5599 3.68358 -1.01153e-19)
(42.7716 4.11114 -5.53374e-19)
(43.0125 4.57936 0)
(43.2456 5.08833 4.7883e-19)
(43.4768 5.64856 -2.34365e-19)
(43.7303 6.23704 -5.0177e-20)
(44.0301 6.87052 -1.28253e-19)
(44.3277 7.57551 -4.56434e-19)
(44.6406 8.34447 1.47128e-18)
(45.031 9.17979 -1.42831e-18)
(45.5204 10.0758 0)
(46.0241 11.018 0)
(46.4574 12.0052 0)
(46.9058 13.0398 0)
(47.4343 14.1554 4.56207e-18)
(48.0463 15.3537 -8.71109e-18)
(48.7172 16.6007 0)
(49.4604 17.8966 4.72678e-20)
(50.2802 19.2459 -4.7156e-19)
(51.0966 20.6412 -9.41565e-18)
(51.9771 22.0954 5.20794e-18)
(53.0228 23.6055 0)
(54.1725 25.1151 4.53788e-18)
(55.3367 26.729 -1.62366e-17)
(56.5059 28.5214 1.1602e-17)
(57.2849 29.9811 8.24298e-18)
(54.8881 29.3507 2.96247e-17)
(36.3876 21.4018 -2.21637e-17)
(39.3342 0.0199992 -7.71273e-19)
(40.6665 -0.135696 -1.49274e-18)
(40.6827 0.0674657 1.24664e-20)
(40.7321 0.0768046 -4.57705e-19)
(40.7756 0.17436 4.14276e-19)
(40.8178 0.255295 -1.48203e-20)
(40.8714 0.332924 4.87614e-19)
(40.9244 0.41365 5.83765e-19)
(40.9881 0.498356 5.12963e-19)
(41.0705 0.597968 -1.84736e-20)
(41.1543 0.723417 -2.43835e-19)
(41.2485 0.850603 -9.46514e-20)
(41.3559 0.974415 3.20274e-19)
(41.476 1.13355 0)
(41.5984 1.31913 0)
(41.7391 1.518 5.89654e-21)
(41.9104 1.73891 4.53757e-20)
(42.097 2.00187 0)
(42.2897 2.31337 -1.88321e-20)
(42.4822 2.63942 1.34403e-19)
(42.6808 2.99904 1.76587e-19)
(42.9122 3.37641 -2.80272e-19)
(43.1072 3.79342 0)
(43.2964 4.24264 4.14839e-19)
(43.5653 4.72773 1.93418e-19)
(43.8804 5.2479 -2.15772e-19)
(44.2043 5.81475 0)
(44.5121 6.43505 0)
(44.842 7.09656 2.79546e-19)
(45.2286 7.78784 8.72713e-19)
(45.673 8.52078 -2.39782e-18)
(46.1151 9.30132 1.00961e-18)
(46.5131 10.1316 1.45358e-18)
(46.9555 11.013 -3.45516e-18)
(47.5208 11.9521 5.57308e-18)
(48.1675 12.9695 1.68275e-18)
(48.8568 14.017 -3.12969e-18)
(49.5859 15.0884 3.93894e-18)
(50.3541 16.2158 -5.7228e-18)
(51.177 17.4106 6.62372e-20)
(52.0753 18.6502 -5.53755e-19)
(53.0906 19.9252 4.83724e-18)
(54.1854 21.2186 6.77362e-18)
(55.2752 22.5595 -7.52502e-18)
(56.439 23.8957 4.62462e-18)
(57.7402 25.3658 0)
(59.0247 27.0203 6.91903e-18)
(59.6666 28.1721 9.96389e-18)
(56.5069 27.1707 -2.07703e-17)
(36.0055 18.8379 -6.48122e-18)
(39.2426 0.0124139 6.12859e-19)
(40.7479 -0.104995 7.00556e-19)
(40.7719 0.112986 5.71564e-21)
(40.8277 0.109743 -3.46508e-19)
(40.8515 0.200953 -7.96532e-19)
(40.8857 0.255257 3.91227e-19)
(40.9455 0.318205 -8.72883e-19)
(41.0246 0.39917 1.93436e-19)
(41.11 0.495492 -4.98268e-19)
(41.2072 0.601935 -1.91751e-19)
(41.3242 0.719159 4.31178e-19)
(41.4402 0.867922 -2.54319e-19)
(41.5725 1.03742 -8.46817e-20)
(41.7175 1.2105 4.31757e-21)
(41.8636 1.39917 3.27389e-20)
(42.0047 1.61184 -8.45925e-20)
(42.1526 1.8395 3.25953e-20)
(42.3231 2.07013 0)
(42.5156 2.3141 0)
(42.7269 2.60496 0)
(42.9487 2.9159 8.48412e-20)
(43.2205 3.2642 2.45522e-19)
(43.5106 3.6446 5.07407e-19)
(43.7894 4.06773 1.72572e-19)
(44.1046 4.52742 0)
(44.4266 5.02479 0)
(44.7698 5.5568 -9.2035e-19)
(45.1512 6.11443 5.60408e-19)
(45.5796 6.72416 -1.49542e-19)
(46.0097 7.39642 1.80055e-19)
(46.4527 8.11798 1.28904e-19)
(46.9731 8.89056 1.6601e-18)
(47.6129 9.71018 -8.90807e-19)
(48.3075 10.5801 3.26906e-18)
(48.96 11.4882 -2.41132e-18)
(49.5994 12.4163 -1.28666e-18)
(50.2926 13.3962 2.71906e-19)
(51.0866 14.4478 2.42495e-18)
(51.9639 15.5351 2.59788e-18)
(52.9175 16.6389 3.69659e-18)
(53.9173 17.7717 -5.40124e-19)
(54.9159 18.9346 6.24506e-18)
(56.0089 20.117 -6.94676e-18)
(57.2766 21.3144 0)
(58.6251 22.4877 0)
(59.9604 23.7418 0)
(61.2312 25.2141 0)
(61.5115 26.0824 0)
(57.3875 24.7011 -1.2173e-17)
(34.9106 16.0443 1.99379e-17)
(39.1344 0.0141049 -6.14109e-19)
(40.831 -0.153025 0)
(40.8642 0.0633047 0)
(40.9196 0.0448778 3.52183e-19)
(40.9511 0.155837 3.61904e-19)
(40.9986 0.208029 -3.8989e-19)
(41.0631 0.285014 3.98637e-19)
(41.1491 0.375058 -1.94053e-19)
(41.233 0.471255 1.28725e-19)
(41.3307 0.582785 1.87724e-19)
(41.4479 0.698545 -1.64324e-19)
(41.5819 0.80932 2.07703e-20)
(41.7187 0.947704 7.02455e-20)
(41.8741 1.10567 0)
(42.0558 1.28272 -2.84657e-20)
(42.2569 1.48201 1.06397e-19)
(42.4763 1.70708 9.13313e-21)
(42.7177 1.96703 4.27142e-19)
(42.968 2.24467 -6.27294e-19)
(43.2328 2.54227 0)
(43.4985 2.88787 0)
(43.7764 3.25486 -6.71936e-19)
(44.0629 3.63869 2.03122e-19)
(44.3522 4.05516 1.11686e-18)
(44.7192 4.51563 3.42192e-19)
(45.1499 5.00851 -1.28466e-18)
(45.5835 5.54902 2.06834e-18)
(46.0075 6.13713 -2.12722e-18)
(46.4532 6.74848 1.21307e-18)
(46.969 7.3896 -1.03458e-18)
(47.5616 8.06239 6.10749e-19)
(48.1694 8.77749 -2.10774e-18)
(48.7337 9.53253 1.20133e-18)
(49.3073 10.3127 -2.30665e-18)
(49.9803 11.1306 0)
(50.7783 12.0152 -2.01781e-18)
(51.6611 12.9314 -2.17928e-18)
(52.574 13.8474 3.31477e-19)
(53.506 14.7834 4.14139e-18)
(54.4942 15.7639 -4.22101e-18)
(55.5879 16.7667 -5.14959e-19)
(56.7818 17.7746 -6.98562e-18)
(58.0074 18.7947 1.63056e-17)
(59.219 19.835 8.98026e-19)
(60.513 20.8376 1.06911e-18)
(61.9303 21.9464 -6.43851e-18)
(63.1826 23.2052 0)
(63.1998 23.7633 1.08124e-17)
(57.8573 22.093 -5.81625e-18)
(33.1576 13.1641 0)
(39.0407 0.00318064 1.79324e-21)
(40.9004 -0.119143 -1.24361e-22)
(40.9486 0.0912923 -2.39164e-19)
(41.0036 0.0632186 0)
(41.0177 0.165133 -3.96136e-21)
(41.0681 0.206741 -1.09288e-19)
(41.1533 0.274571 0)
(41.2543 0.358246 9.04639e-20)
(41.3612 0.45506 -1.34109e-19)
(41.4893 0.556756 5.57506e-21)
(41.6264 0.681766 -1.3874e-20)
(41.7817 0.821959 -7.03718e-20)
(41.9576 0.969212 2.26057e-20)
(42.1345 1.12915 0)
(42.3233 1.30231 0)
(42.5171 1.49446 0)
(42.7235 1.70177 3.77711e-19)
(42.953 1.91606 -4.30932e-19)
(43.2117 2.15609 1.04224e-18)
(43.494 2.41778 -1.22354e-19)
(43.8156 2.68645 2.95904e-19)
(44.182 3.00785 4.98341e-19)
(44.5554 3.36243 -1.96151e-18)
(44.9168 3.74105 -1.81315e-18)
(45.2998 4.16127 0)
(45.7128 4.61069 1.17583e-18)
(46.1701 5.08362 -2.81052e-18)
(46.675 5.58458 1.862e-18)
(47.2262 6.14007 -9.86196e-19)
(47.7887 6.74487 5.81078e-19)
(48.3604 7.39304 -8.02485e-19)
(48.9981 8.07538 2.90625e-18)
(49.7419 8.78667 -3.40557e-18)
(50.5819 9.5415 4.42438e-18)
(51.4321 10.3293 1.86823e-18)
(52.2429 11.1241 -4.38426e-18)
(53.0618 11.9322 5.38614e-18)
(53.981 12.7947 -3.46052e-18)
(54.9968 13.6928 1.91443e-20)
(56.078 14.5846 0)
(57.1707 15.4847 5.76918e-18)
(58.2757 16.397 3.8399e-18)
(59.4971 17.2913 3.84492e-19)
(60.879 18.1751 -1.08368e-17)
(62.3224 19.0284 -4.19402e-19)
(63.7751 20.0088 -7.4854e-18)
(64.7389 20.9293 0)
(64.1853 21.2901 1.17658e-17)
(57.3287 19.3042 -1.96712e-17)
(30.5322 10.2227 0)
(38.9335 -0.0168631 0)
(40.9656 -0.16124 0)
(41.0235 0.0285121 1.4696e-19)
(41.0742 -0.00246217 -6.48364e-21)
(41.1022 0.107254 9.12087e-20)
(41.1799 0.148095 1.13925e-19)
(41.262 0.238849 0)
(41.3706 0.320547 -9.06718e-20)
(41.4766 0.407761 7.61542e-21)
(41.6034 0.502782 0)
(41.7594 0.588493 6.40289e-20)
(41.9247 0.694516 -5.18541e-20)
(42.1099 0.816661 1.72155e-20)
(42.3151 0.954844 -1.91943e-20)
(42.547 1.11241 0)
(42.8047 1.28159 0)
(43.0789 1.48015 -1.82188e-19)
(43.3751 1.70361 -3.35106e-19)
(43.6965 1.94758 9.84286e-20)
(44.0298 2.2177 -7.72771e-20)
(44.3398 2.53563 1.85394e-19)
(44.7052 2.83615 -1.10685e-19)
(45.0866 3.1845 1.09152e-18)
(45.4916 3.55972 4.91251e-19)
(45.962 3.96407 -7.99834e-19)
(46.4854 4.39896 -1.27836e-18)
(47.0211 4.88541 9.8175e-19)
(47.552 5.4089 1.42436e-18)
(48.1025 5.94172 0)
(48.7272 6.50243 0)
(49.4402 7.08177 0)
(50.1854 7.69836 -2.02831e-18)
(50.9108 8.35032 -1.39487e-18)
(51.6103 9.01173 -1.52438e-18)
(52.3504 9.68797 2.09551e-18)
(53.2307 10.4047 2.55895e-18)
(54.2344 11.1618 -1.30244e-18)
(55.2707 11.9078 3.66388e-18)
(56.3112 12.6367 -2.13524e-18)
(57.4034 13.3849 -2.79799e-18)
(58.6149 14.1376 -3.43243e-18)
(59.8924 14.8787 3.82751e-18)
(61.1594 15.6325 0)
(62.415 16.381 6.04743e-18)
(63.7508 17.0836 -3.48316e-18)
(65.2109 17.9477 4.15237e-18)
(65.9307 18.5417 0)
(64.8734 18.7284 -6.05747e-18)
(56.3116 16.4804 3.55085e-18)
(27.2264 7.41542 0)
(38.8224 -0.026866 6.87132e-20)
(41.0319 -0.123892 0)
(41.1038 0.0502439 1.64548e-19)
(41.1539 0.0104735 -6.46517e-20)
(41.1625 0.112898 -8.7953e-20)
(41.2465 0.132441 1.51801e-21)
(41.3531 0.207113 -1.68947e-21)
(41.4812 0.274431 0)
(41.6048 0.352444 -9.02107e-21)
(41.7451 0.438825 -5.15082e-20)
(41.9138 0.545211 -5.02274e-20)
(42.1112 0.646729 1.00044e-19)
(42.3186 0.766733 -9.95506e-20)
(42.5384 0.889222 -3.19302e-20)
(42.7718 1.03098 1.98662e-20)
(43.0218 1.19004 0)
(43.286 1.35507 -3.26258e-19)
(43.5727 1.53355 4.2286e-19)
(43.8965 1.73304 2.21454e-20)
(44.2818 1.93777 -1.18748e-20)
(44.7012 2.16458 1.03838e-19)
(45.1215 2.4487 0)
(45.5889 2.72773 1.875e-19)
(46.0306 3.05973 7.34425e-19)
(46.5008 3.41997 1.02994e-18)
(47.0084 3.80048 1.28533e-18)
(47.5672 4.18681 0)
(48.1761 4.60847 -9.91756e-19)
(48.8357 5.07708 -2.05976e-18)
(49.5118 5.58518 1.18842e-18)
(50.1953 6.13502 -2.5424e-18)
(50.9338 6.70897 -1.2675e-18)
(51.7363 7.29753 2.32579e-18)
(52.6573 7.91307 -8.68525e-19)
(53.6532 8.55924 -2.11395e-18)
(54.6051 9.21295 -1.19473e-18)
(55.5222 9.84255 -1.57475e-18)
(56.5104 10.502 0)
(57.5867 11.1996 -2.51936e-18)
(58.7138 11.8887 5.59841e-18)
(59.8275 12.5703 3.45916e-18)
(60.9704 13.2391 -4.1033e-18)
(62.2406 13.8573 5.32661e-18)
(63.6436 14.4514 -2.80801e-18)
(65.1019 15.0336 7.27123e-18)
(66.4877 15.7447 1.26444e-19)
(66.8123 16.1221 0)
(64.7372 16.097 1.25341e-17)
(54.0062 13.5981 -1.07037e-17)
(22.9166 4.72146 -4.06411e-18)
(38.6924 -0.0297432 -6.87704e-20)
(41.0799 -0.16125 5.03375e-20)
(41.1482 -0.00421951 -7.03822e-20)
(41.1979 -0.0512028 6.3986e-20)
(41.2451 0.0595956 1.72021e-20)
(41.3409 0.0845971 8.59842e-22)
(41.4342 0.169765 -2.80325e-22)
(41.559 0.2063 0)
(41.6935 0.268323 -4.68036e-20)
(41.8509 0.319863 9.14505e-20)
(42.0235 0.384995 0)
(42.2246 0.456398 -1.17613e-20)
(42.4537 0.540988 2.41081e-21)
(42.6991 0.640825 1.58926e-19)
(42.9787 0.745268 -2.67268e-19)
(43.2864 0.867833 -6.05225e-21)
(43.6167 1.01552 4.40727e-20)
(43.9673 1.1828 0)
(44.3332 1.3727 -2.49165e-19)
(44.7069 1.6 4.82373e-19)
(45.1155 1.83742 -6.01857e-20)
(45.5576 2.09683 0)
(46.0319 2.37463 0)
(46.5433 2.66936 -4.16794e-19)
(47.1034 2.9933 1.65287e-19)
(47.7114 3.36362 -1.20422e-18)
(48.3397 3.77582 4.81025e-19)
(48.9772 4.21347 -2.82199e-19)
(49.6204 4.65939 9.99395e-19)
(50.3335 5.12269 4.26498e-19)
(51.1347 5.59229 1.51745e-18)
(51.9689 6.09036 -1.4478e-18)
(52.8242 6.61676 9.09044e-19)
(53.6397 7.15174 -1.02496e-18)
(54.4259 7.68702 -1.25636e-18)
(55.3292 8.23456 -1.41204e-18)
(56.3709 8.82734 0)
(57.4694 9.41236 3.31036e-18)
(58.5706 9.95436 -1.24464e-18)
(59.7112 10.4769 -3.02831e-18)
(60.9649 10.9925 3.61479e-18)
(62.2469 11.4962 -1.15655e-19)
(63.4865 12.013 -2.78974e-18)
(64.7252 12.5075 -4.85245e-20)
(66.0784 13.0003 -3.6779e-18)
(67.1364 13.4917 -8.67133e-18)
(67.1617 13.6521 5.06095e-18)
(64.0854 13.4591 0)
(51.0478 10.7403 -7.49411e-18)
(17.7863 2.29056 1.4346e-17)
(38.5703 -0.0324936 -8.0268e-23)
(41.1413 -0.137721 -5.04219e-20)
(41.2093 0.00819399 8.58533e-21)
(41.2502 -0.0501826 3.12031e-22)
(41.2852 0.0423278 -1.69552e-20)
(41.3883 0.0218462 0)
(41.5081 0.0913552 0)
(41.6486 0.114947 -1.42539e-21)
(41.7805 0.177617 8.71074e-20)
(41.9448 0.230118 -4.18907e-20)
(42.1445 0.284356 5.19676e-21)
(42.3579 0.349327 -1.30587e-20)
(42.5967 0.413816 7.13589e-20)
(42.8491 0.488472 -8.55251e-20)
(43.1223 0.580045 3.73861e-19)
(43.4176 0.676664 -8.90233e-20)
(43.7334 0.784363 1.15185e-19)
(44.0825 0.901142 3.77216e-20)
(44.4864 1.02595 -4.27806e-19)
(44.9362 1.1613 -3.15085e-19)
(45.4085 1.32238 8.46212e-21)
(45.9075 1.51374 -8.51678e-20)
(46.4354 1.74416 0)
(46.9725 1.99878 -4.58069e-19)
(47.523 2.28202 8.80097e-21)
(48.1236 2.56513 1.56767e-19)
(48.7695 2.86379 1.2603e-19)
(49.4588 3.18844 3.36396e-19)
(50.2028 3.55014 0)
(50.9715 3.94951 2.54309e-19)
(51.7437 4.38977 1.46826e-18)
(52.5732 4.84698 1.39066e-18)
(53.4117 5.31635 -7.88994e-19)
(54.3545 5.79541 1.58444e-18)
(55.426 6.29835 -1.28326e-18)
(56.4809 6.81506 -7.99224e-19)
(57.4832 7.28762 0)
(58.4951 7.76088 -2.20735e-18)
(59.5658 8.26737 -1.41399e-18)
(60.6747 8.78592 1.57956e-18)
(61.7586 9.28293 -1.91878e-18)
(62.8838 9.7391 2.29825e-18)
(64.1339 10.1204 0)
(65.4903 10.4853 1.67498e-18)
(66.9585 10.9039 0)
(67.6968 11.1592 2.31849e-18)
(67.2133 11.2292 -5.52335e-18)
(62.477 10.7929 3.16028e-18)
(46.558 7.90967 0)
(11.9438 0.310982 1.04116e-18)
(38.439 -0.0334414 -7.4758e-24)
(41.1591 -0.16982 -5.66493e-24)
(41.2382 -0.0412606 -8.85169e-21)
(41.2958 -0.104993 -1.03012e-23)
(41.3473 -0.00868256 1.86426e-23)
(41.4345 -0.022452 3.18985e-23)
(41.5456 0.0288289 -3.55069e-23)
(41.6832 0.0257922 2.41929e-22)
(41.8366 0.0377383 -3.57779e-20)
(41.9916 0.0570896 -1.00204e-21)
(42.1912 0.0759277 -7.63779e-22)
(42.4255 0.0978145 1.90109e-21)
(42.6776 0.133481 7.55902e-20)
(42.9568 0.16515 -1.03083e-19)
(43.2668 0.208929 -1.4347e-19)
(43.6152 0.263875 8.86433e-20)
(43.9789 0.33992 -1.11724e-19)
(44.3607 0.437338 -5.03302e-21)
(44.7639 0.557113 -6.39453e-21)
(45.2076 0.698403 0)
(45.6816 0.863127 -1.01479e-20)
(46.1841 1.02528 -6.50315e-21)
(46.7337 1.20112 7.26963e-21)
(47.3268 1.40169 0)
(47.9684 1.64363 0)
(48.6419 1.92561 4.31116e-19)
(49.3509 2.24387 0)
(50.0839 2.59162 -3.36861e-19)
(50.8114 2.94776 0)
(51.5964 3.30959 1.67389e-20)
(52.4674 3.67447 -6.55178e-19)
(53.3482 4.05762 4.62989e-20)
(54.285 4.45419 -9.66848e-19)
(55.2011 4.86558 8.6051e-20)
(56.0357 5.2771 5.75021e-19)
(56.9248 5.68152 8.99931e-19)
(57.934 6.12408 -3.14259e-20)
(59.0492 6.57161 0)
(60.1738 6.97043 -2.25104e-20)
(61.3179 7.30362 2.68586e-20)
(62.5517 7.62359 0)
(63.778 7.93756 -3.79945e-20)
(64.9424 8.26583 -1.84604e-19)
(66.1356 8.57345 -1.447e-18)
(67.3445 8.87707 -2.96633e-20)
(67.6092 8.9702 0)
(66.3846 8.8401 0)
(59.948 8.09254 4.64378e-19)
(41.629 5.09604 -4.59858e-19)
(7.48269 -0.920325 1.0357e-18)
(38.3063 -0.0455554 -1.33094e-20)
(41.1837 -0.167033 -1.19512e-20)
(41.2619 -0.044645 -5.00911e-21)
(41.3116 -0.126961 -1.9816e-21)
(41.3582 -0.0563901 1.76461e-21)
(41.4671 -0.109442 -9.0155e-21)
(41.5799 -0.0701955 0)
(41.718 -0.0831367 0)
(41.8611 -0.0643606 2.37003e-20)
(42.0377 -0.0663663 1.00191e-21)
(42.2337 -0.0575381 -4.59886e-20)
(42.4615 -0.0580261 -3.76464e-21)
(42.7179 -0.0494263 -8.56102e-20)
(42.9916 -0.0361992 1.15177e-19)
(43.2914 -0.0190219 1.64188e-19)
(43.6222 0.00210228 0)
(43.9867 0.0243246 0)
(44.3852 0.0545402 5.03231e-21)
(44.8295 0.0962206 6.39363e-21)
(45.318 0.137125 -2.73711e-19)
(45.8464 0.207282 1.01464e-20)
(46.4052 0.320374 0)
(46.9921 0.467163 0)
(47.5916 0.630137 -8.53437e-20)
(48.2224 0.803785 -4.19495e-19)
(48.9047 0.993944 1.32656e-19)
(49.6194 1.19544 0)
(50.3655 1.40695 -3.78848e-19)
(51.1706 1.65557 0)
(52.01 1.94647 -1.67362e-20)
(52.8466 2.27625 0)
(53.7558 2.62054 0)
(54.6311 2.9882 2.54782e-19)
(55.5599 3.35155 2.98619e-19)
(56.6392 3.7275 0)
(57.76 4.12052 0)
(58.8397 4.47504 3.14156e-20)
(59.8448 4.80962 0)
(60.8719 5.15533 2.25012e-20)
(61.9245 5.54042 -9.06525e-19)
(62.9477 5.89819 1.0682e-18)
(64.02 6.20272 1.11076e-19)
(65.2082 6.42448 8.38094e-20)
(66.5593 6.66562 -1.61169e-18)
(67.4549 6.81736 -9.55762e-19)
(67.5016 6.79902 5.65672e-18)
(65.1946 6.57541 -2.70542e-18)
(56.395 5.59319 -3.30597e-18)
(34.6283 2.42184 2.71054e-18)
(4.29495 -1.18422 0)
(38.1484 -0.0653572 1.32563e-20)
(41.1929 -0.201533 -1.35327e-20)
(41.2807 -0.0795997 4.83722e-21)
(41.3284 -0.177463 -2.21539e-21)
(41.3636 -0.0998461 -1.91799e-21)
(41.4504 -0.165324 9.17428e-21)
(41.5669 -0.137172 1.49525e-21)
(41.6961 -0.197562 -1.66483e-21)
(41.8356 -0.210418 -2.01427e-20)
(41.9993 -0.252529 -3.94638e-21)
(42.2068 -0.290074 4.93304e-20)
(42.4414 -0.325464 1.39051e-19)
(42.7048 -0.364525 -9.63196e-20)
(42.9945 -0.399747 -1.04971e-19)
(43.3198 -0.434313 -5.06166e-19)
(43.6789 -0.452985 2.85645e-20)
(44.0642 -0.465225 -3.18852e-20)
(44.4757 -0.456631 3.52467e-19)
(44.915 -0.426957 5.91346e-20)
(45.4 -0.376324 2.07336e-19)
(45.9172 -0.330333 0)
(46.4713 -0.28035 0)
(47.082 -0.215412 0)
(47.7388 -0.118194 0)
(48.4291 0.0179642 4.09053e-19)
(49.1562 0.190969 -1.04804e-18)
(49.9417 0.410418 0)
(50.7513 0.670188 1.1648e-18)
(51.5545 0.935379 0)
(52.3994 1.19924 0)
(53.3295 1.46744 -1.41379e-18)
(54.2339 1.7533 8.75819e-19)
(55.2087 2.03625 -2.03527e-18)
(56.2064 2.33979 5.80518e-19)
(57.1061 2.65212 0)
(57.9709 2.95545 0)
(58.9096 3.27505 1.08799e-18)
(60.0123 3.60943 -3.74989e-18)
(61.1301 3.92035 0)
(62.249 4.13411 -2.73591e-18)
(63.4272 4.32307 4.20209e-18)
(64.5615 4.50182 -4.96395e-18)
(65.6431 4.71688 2.8181e-18)
(66.7964 4.93185 -3.34639e-18)
(67.202 4.98676 8.64887e-18)
(66.5561 4.9431 -8.11293e-18)
(62.724 4.61032 5.54471e-18)
(51.1322 3.4241 -1.24874e-17)
(27.0291 0.367399 1.49818e-17)
(1.82413 -0.781925 -9.63895e-18)
(37.9767 -0.0644033 3.64615e-20)
(41.1983 -0.204199 -6.94043e-21)
(41.2717 -0.0849735 0)
(41.326 -0.19895 4.12425e-21)
(41.3599 -0.139968 2.20259e-21)
(41.4373 -0.227621 6.50439e-22)
(41.5357 -0.223634 0)
(41.6604 -0.27786 0)
(41.8056 -0.31662 -6.93587e-21)
(41.9528 -0.360469 7.7265e-21)
(42.1433 -0.418872 -1.95091e-19)
(42.3708 -0.475895 1.32303e-19)
(42.6219 -0.537379 1.87739e-19)
(42.8966 -0.601476 -2.47446e-19)
(43.2066 -0.671134 3.2734e-19)
(43.5538 -0.741678 5.79824e-20)
(43.9336 -0.814269 -6.16942e-19)
(44.3586 -0.889124 -1.06175e-18)
(44.8233 -0.96037 0)
(45.3421 -1.01411 5.74033e-19)
(45.9092 -1.03326 7.23474e-19)
(46.5105 -1.02352 0)
(47.1378 -0.988916 -1.13206e-18)
(47.794 -0.938716 0)
(48.5048 -0.866792 0)
(49.2551 -0.781013 1.0449e-18)
(50.0136 -0.696678 6.3394e-19)
(50.8122 -0.598012 1.59276e-18)
(51.6635 -0.460724 0)
(52.5601 -0.269215 0)
(53.4445 -0.0381486 6.62928e-19)
(54.4147 0.203079 8.33593e-19)
(55.3394 0.481819 3.18883e-18)
(56.2559 0.759379 8.86986e-20)
(57.2995 1.0409 1.02756e-19)
(58.4554 1.33026 -3.59442e-18)
(59.6073 1.60981 -1.36779e-19)
(60.6046 1.86614 4.99068e-18)
(61.588 2.09631 3.04253e-18)
(62.5748 2.3819 1.77389e-18)
(63.5234 2.65417 4.34171e-18)
(64.534 2.89525 2.61954e-19)
(65.726 3.08207 -5.53546e-18)
(66.6683 3.2119 -3.17035e-18)
(66.7932 3.24353 -9.55774e-18)
(65.4753 3.20637 1.15723e-17)
(59.6938 2.93042 -5.24754e-18)
(44.8912 1.87885 0)
(16.1994 -0.793802 0)
(0.105582 -0.179845 1.89432e-18)
(37.7988 -0.0472752 -1.34618e-19)
(41.2145 -0.221269 -5.61024e-20)
(41.2701 -0.0821564 4.35162e-20)
(41.3003 -0.217198 -4.79006e-22)
(41.3263 -0.156567 -2.27193e-20)
(41.3898 -0.266485 -2.5174e-22)
(41.4771 -0.274243 0)
(41.5746 -0.359267 -9.39551e-20)
(41.697 -0.432414 -6.32937e-21)
(41.8436 -0.526502 -2.35811e-21)
(42.023 -0.620385 3.83732e-19)
(42.2425 -0.726833 -2.52153e-19)
(42.4901 -0.835595 4.44855e-21)
(42.7655 -0.948902 2.18973e-19)
(43.0808 -1.06128 0)
(43.4329 -1.17344 0)
(43.8202 -1.2794 4.76712e-19)
(44.2435 -1.36273 7.90632e-19)
(44.7011 -1.44131 0)
(45.1962 -1.52538 -5.72228e-19)
(45.7403 -1.61287 -7.21068e-19)
(46.3373 -1.68495 -2.41213e-19)
(46.9937 -1.73554 2.62717e-19)
(47.6882 -1.75985 1.04077e-18)
(48.4138 -1.75083 4.16806e-19)
(49.2022 -1.6892 5.66915e-19)
(50.0578 -1.56361 -1.94516e-18)
(50.9299 -1.40074 -1.60439e-18)
(51.8046 -1.22348 1.99238e-18)
(52.7079 -1.05408 -2.42284e-18)
(53.693 -0.877677 0)
(54.6314 -0.671548 0)
(55.6218 -0.473262 1.04962e-19)
(56.6694 -0.259872 -2.45727e-18)
(57.6577 -0.0268314 3.06536e-18)
(58.5204 0.215184 5.53483e-18)
(59.3892 0.450001 -2.09709e-18)
(60.4632 0.701885 -5.16368e-18)
(61.5582 0.971643 -6.07048e-18)
(62.6505 1.15046 -3.68923e-18)
(63.7766 1.28912 -2.2158e-19)
(64.8504 1.40914 4.82142e-18)
(65.9243 1.60451 0)
(66.38 1.73323 3.21793e-18)
(66.0726 1.79049 3.9345e-18)
(63.3095 1.82095 4.52923e-18)
(54.9196 1.5935 1.56846e-17)
(35.8439 0.561769 -5.81319e-18)
(8.41038 -1.00662 0)
(-0.818403 0.367397 0)
(37.6445 -0.0139308 -3.34105e-20)
(41.207 -0.211694 8.72785e-20)
(41.2534 -0.0600895 -4.52795e-20)
(41.2635 -0.22134 1.04149e-19)
(41.2842 -0.151924 2.23224e-20)
(41.3284 -0.28026 -9.08911e-22)
(41.4171 -0.300133 3.96173e-22)
(41.4985 -0.398142 8.74655e-20)
(41.6081 -0.477375 7.01103e-21)
(41.7314 -0.576812 1.64484e-20)
(41.8937 -0.683622 -1.72486e-19)
(42.091 -0.80587 -2.66614e-20)
(42.3135 -0.94044 -3.13556e-19)
(42.5601 -1.0896 -4.32431e-19)
(42.8468 -1.25052 8.36873e-20)
(43.1711 -1.4168 -9.33526e-20)
(43.5376 -1.60458 0)
(43.958 -1.80089 -6.67065e-19)
(44.4308 -1.97617 0)
(44.9641 -2.12836 0)
(45.5486 -2.26267 0)
(46.1686 -2.37866 -4.78298e-19)
(46.828 -2.47006 1.66348e-18)
(47.5463 -2.54092 -1.40644e-18)
(48.3164 -2.58375 0)
(49.0996 -2.63174 -5.691e-19)
(49.9118 -2.67209 -2.02521e-18)
(50.7655 -2.68617 -3.26811e-18)
(51.6685 -2.65861 -3.02109e-18)
(52.6219 -2.55651 2.40244e-18)
(53.5559 -2.41143 -2.94386e-18)
(54.5693 -2.25787 1.71001e-18)
(55.559 -2.0615 4.29207e-18)
(56.5105 -1.84622 0)
(57.5072 -1.62671 3.1209e-18)
(58.6786 -1.41297 -7.39439e-18)
(59.901 -1.18311 -1.50457e-19)
(60.9209 -0.959787 5.10871e-18)
(61.8936 -0.784354 3.02057e-18)
(62.8408 -0.562275 0)
(63.7538 -0.319183 4.22031e-18)
(64.7619 -0.0579997 -4.94553e-18)
(65.7736 0.168891 1.06314e-17)
(66.0108 0.237589 0)
(64.9828 0.402951 -1.56186e-17)
(60.6494 0.547139 4.30027e-18)
(48.79 0.304426 -5.10058e-18)
(25.9031 -0.686116 -5.7318e-18)
(3.85511 -0.649874 1.27078e-17)
(-1.60553 0.643198 -9.38588e-22)
(37.5072 0.00102757 1.31547e-19)
(41.2242 -0.20321 -1.57622e-19)
(41.2676 -0.0281169 1.7273e-19)
(41.2219 -0.192452 -2.57806e-19)
(41.2167 -0.127748 1.46349e-19)
(41.2361 -0.268389 -4.29423e-21)
(41.2902 -0.312054 3.09643e-20)
(41.3584 -0.430186 0)