/*--------------------------------*- C++ -*----------------------------------*\
| =========                 |                                                 |
| \\      /  F ield         | OpenFOAM: The Open Source CFD Toolbox           |
|  \\    /   O peration     | Version:  v1912                                 |
|   \\  /    A nd           | Website:  www.openfoam.com                      |
|    \\/     M anipulation  |                                                 |
\*---------------------------------------------------------------------------*/
FoamFile
{
    version     2.0;
    format      ascii;
    class       surfaceScalarField;
    location    "0.16";
    object      phi;
}
// * * * * * * * * * * * * * * * * * * * * * * * * * * * * * * * * * * * * * //

dimensions      [0 3 -1 0 0 0 0];
oriented        oriented;


internalField   nonuniform List<scalar> 
13060
(
0.00559369
0.988613
-0.994207
0.00693105
0.946513
-0.947851
0.00766428
0.900941
-0.901674
0.00837879
0.857753
-0.858467
0.00884814
0.81778
-0.81825
0.00911006
0.779948
-0.78021
0.00900085
0.743881
-0.743772
0.00905553
0.709229
-0.709283
0.00887802
0.676076
-0.675898
0.00873497
0.6446
-0.644457
0.00860173
0.614096
-0.613962
0.00817638
0.585363
-0.584938
0.00774608
0.55753
-0.5571
0.00758767
0.530799
-0.530641
0.00748973
0.505328
-0.50523
0.00739417
0.480863
-0.480767
0.00735929
0.457442
-0.457407
0.00733274
0.434943
-0.434916
0.00730827
0.413463
-0.413439
0.00726344
0.392915
-0.39287
0.00721118
0.37325
-0.373198
0.00714719
0.354518
-0.354454
0.00710932
0.336583
-0.336546
0.00728135
0.319312
-0.319484
0.00745124
0.302928
-0.303098
0.00740426
0.28753
-0.287483
0.00717575
0.272823
-0.272594
0.00696075
0.258624
-0.258409
0.00673037
0.245186
-0.244956
0.00639716
0.232592
-0.232259
0.00600757
0.2206
-0.22021
0.00560258
0.20919
-0.208785
0.00517632
0.198437
-0.198011
0.0047019
0.188295
-0.187821
0.00418479
0.178688
-0.178171
0.0036545
0.16964
-0.16911
0.00308208
0.1612
-0.160628
0.00247241
0.153294
-0.152684
0.00185444
0.145867
-0.145249
0.00122861
0.138906
-0.13828
0.000597918
0.132385
-0.131755
2.52213e-06
0.126293
-0.125698
-0.000691034
0.120624
-0.11993
-0.0013237
0.115304
-0.114671
-0.00191456
0.110348
-0.109757
-0.00240911
0.105813
-0.105318
-0.00295955
0.101199
-0.100649
-0.00313418
0.097481
-0.0973064
-0.00234812
0.0887847
-0.0895708
0.0596442
-0.0619924
0.0055764
0.983037
0.00644263
0.945647
0.00648036
0.900903
0.0058471
0.858386
0.00532543
0.818302
0.00481665
0.780457
0.0045256
0.744172
0.00403808
0.709716
0.00348916
0.676625
0.00332255
0.644766
0.00316074
0.614257
0.00337688
0.585147
0.00351055
0.557396
0.0034045
0.530905
0.00331512
0.505418
0.00320581
0.480972
0.00307528
0.457572
0.00293418
0.435084
0.00280617
0.413591
0.0026771
0.393044
0.00254558
0.373381
0.00239779
0.354666
0.00217754
0.336804
0.00173814
0.319751
0.00117604
0.30349
0.00087635
0.287829
0.000798008
0.272901
0.000584457
0.258837
0.000261984
0.245509
5.09813e-05
0.232803
-0.000157313
0.220808
-0.000442561
0.209476
-0.000752255
0.198746
-0.00106893
0.188612
-0.00141224
0.179031
-0.00180399
0.170032
-0.00220489
0.161601
-0.00259784
0.153687
-0.00300109
0.14627
-0.00341013
0.139315
-0.00379826
0.132774
-0.00415943
0.126654
-0.00443492
0.1209
-0.00465921
0.115528
-0.00481535
0.110504
-0.00486813
0.105866
-0.00490422
0.101235
-0.00436417
0.096941
-0.0029891
0.0874097
0.0566551
0.00528383
0.977753
0.00542432
0.945507
0.00502478
0.901303
0.00405993
0.859351
0.00320871
0.819153
0.00246706
0.781198
0.00162679
0.745013
0.00100792
0.710335
0.000401814
0.677231
-0.000300502
0.645469
-0.00107007
0.615027
-0.00209229
0.586169
-0.00290185
0.558206
-0.00332094
0.531324
-0.00372785
0.505825
-0.00409962
0.481344
-0.00439187
0.457864
-0.00466598
0.435358
-0.00491657
0.413842
-0.00515143
0.393279
-0.00536953
0.3736
-0.00555627
0.354852
-0.00568385
0.336931
-0.00554818
0.319616
-0.00531308
0.303255
-0.00542779
0.287944
-0.00572198
0.273195
-0.00583919
0.258955
-0.00590451
0.245574
-0.00612674
0.233025
-0.00636761
0.221049
-0.00655861
0.209667
-0.00676322
0.198951
-0.00698221
0.188831
-0.00719531
0.179244
-0.00738047
0.170217
-0.00756854
0.161789
-0.00775882
0.153877
-0.00792119
0.146433
-0.00804584
0.13944
-0.00813389
0.132862
-0.00816887
0.126689
-0.00812574
0.120856
-0.00799644
0.115399
-0.00776654
0.110275
-0.00742567
0.105525
-0.00699565
0.100805
-0.00586237
0.0958077
-0.00374315
0.0852905
0.052912
0.00387634
0.973877
0.003502
0.945881
0.00239511
0.902409
0.000969167
0.860777
-0.000484082
0.820606
-0.00186821
0.782583
-0.00297283
0.746117
-0.00418607
0.711548
-0.00516597
0.678211
-0.00582413
0.646127
-0.00639873
0.615602
-0.00655848
0.586329
-0.00694311
0.55859
-0.00746749
0.531848
-0.00785227
0.506209
-0.00824573
0.481737
-0.00863725
0.458256
-0.00901128
0.435732
-0.00934769
0.414178
-0.00965751
0.393588
-0.00994301
0.373885
-0.0102037
0.355113
-0.0105
0.337227
-0.011028
0.320144
-0.011606
0.303833
-0.0118573
0.288195
-0.0119434
0.273281
-0.0121702
0.259182
-0.0124228
0.245827
-0.012512
0.233114
-0.012564
0.221101
-0.0126573
0.20976
-0.012744
0.199038
-0.0127935
0.18888
-0.0128281
0.179279
-0.0128732
0.170262
-0.0128758
0.161792
-0.0128243
0.153825
-0.0127369
0.146345
-0.0126017
0.139305
-0.0123914
0.132651
-0.0120841
0.126382
-0.0116851
0.120457
-0.0111815
0.114895
-0.0105576
0.109651
-0.00973391
0.104701
-0.00882019
0.0998917
-0.00726605
0.0942536
-0.00448324
0.0825077
0.0484287
0.0030828
0.970794
0.00179412
0.94717
-8.73621e-05
0.904291
-0.00136115
0.86205
-0.00298103
0.822226
-0.00444607
0.784048
-0.00599796
0.747669
-0.00726484
0.712815
-0.00840315
0.679349
-0.00980615
0.64753
-0.0110826
0.616878
-0.0125646
0.587811
-0.0135836
0.559609
-0.0143898
0.532655
-0.0152191
0.507039
-0.015892
0.48241
-0.0164494
0.458813
-0.0169507
0.436233
-0.0173969
0.414624
-0.0177946
0.393986
-0.018145
0.374235
-0.0184303
0.355398
-0.0186091
0.337406
-0.0184924
0.320027
-0.0182554
0.303596
-0.0183248
0.288265
-0.0185627
0.273519
-0.0186055
0.259224
-0.0185555
0.245777
-0.0186365
0.233195
-0.0187164
0.221181
-0.0186983
0.209742
-0.0186418
0.198981
-0.0185728
0.188811
-0.0184604
0.179167
-0.0182754
0.170077
-0.0180515
0.161568
-0.0177842
0.153558
-0.0174423
0.146003
-0.0170123
0.138875
-0.0164981
0.132137
-0.015893
0.125777
-0.0151832
0.119748
-0.0143503
0.114062
-0.013396
0.108696
-0.0122873
0.103592
-0.0109966
0.098601
-0.00894175
0.0921987
-0.00530936
0.0788753
0.0431194
0.00193053
0.968863
4.10309e-05
0.949059
-0.00273275
0.907065
-0.00501817
0.864336
-0.0072036
0.824412
-0.00927031
0.786114
-0.0110592
0.749458
-0.0127746
0.714531
-0.0143324
0.680907
-0.0153824
0.64858
-0.0162155
0.617711
-0.0168253
0.588421
-0.0177201
0.560504
-0.0185887
0.533523
-0.0192454
0.507695
-0.0199237
0.483088
-0.0205704
0.45946
-0.0211616
0.436824
-0.021687
0.41515
-0.0221546
0.394454
-0.0225747
0.374656
-0.0229572
0.355781
-0.0233436
0.337793
-0.0239513
0.320635
-0.0245938
0.304239
-0.0248158
0.288487
-0.0247998
0.273503
-0.02494
0.259365
-0.0250852
0.245922
-0.0249893
0.233099
-0.0248214
0.221013
-0.0246834
0.209604
-0.0244936
0.198791
-0.0242192
0.188537
-0.0238918
0.178839
-0.0235386
0.169724
-0.0231068
0.161136
-0.0225803
0.153032
-0.0219744
0.145398
-0.0212846
0.138185
-0.0204903
0.131343
-0.0195741
0.124861
-0.0185441
0.118718
-0.0174004
0.112919
-0.0161418
0.107438
-0.0148261
0.102277
-0.0130817
0.0968566
-0.0105144
0.0896315
-0.00608234
0.0744432
0.037037
0.000987394
0.967876
-0.0020108
0.952057
-0.00497546
0.910029
-0.00742929
0.86679
-0.00982279
0.826805
-0.0119833
0.788275
-0.0140517
0.751526
-0.0158678
0.716347
-0.0175974
0.682636
-0.0196171
0.650599
-0.0215828
0.619677
-0.0233919
0.59023
-0.024704
0.561816
-0.0259294
0.534749
-0.0271482
0.508914
-0.028123
0.484063
-0.0289492
0.460286
-0.0296817
0.437557
-0.0303254
0.415794
-0.03088
0.395008
-0.031343
0.375119
-0.0316997
0.356137
-0.0318961
0.337989
-0.031742
0.320481
-0.0314291
0.303926
-0.0314153
0.288473
-0.0315333
0.273621
-0.0313964
0.259228
-0.03116
0.245685
-0.0310527
0.232992
-0.0308907
0.220851
-0.0305831
0.209296
-0.0302016
0.19841
-0.0297771
0.188112
-0.0292765
0.178339
-0.0286672
0.169115
-0.0279855
0.160454
-0.0272322
0.152278
-0.02638
0.144545
-0.0254148
0.13722
-0.0243473
0.130275
-0.0231877
0.123701
-0.0219265
0.117456
-0.0205491
0.111541
-0.0190499
0.105939
-0.0175036
0.10073
-0.0153599
0.0947128
-0.012207
0.0864786
-0.00686534
0.0691015
0.0301717
6.36174e-05
0.967812
-0.00407898
0.9562
-0.00780079
0.913751
-0.0110983
0.870087
-0.0139652
0.829672
-0.0167186
0.791028
-0.0192681
0.754076
-0.0215677
0.718646
-0.0235583
0.684627
-0.0250125
0.652054
-0.0261916
0.620856
-0.0273107
0.591349
-0.028643
0.563149
-0.0298211
0.535927
-0.0307566
0.50985
-0.0317339
0.48504
-0.0326462
0.461199
-0.033467
0.438378
-0.0341861
0.416513
-0.0348102
0.395632
-0.0353461
0.375654
-0.0358163
0.356608
-0.0362682
0.338441
-0.0369301
0.321143
-0.0376085
0.304604
-0.0378133
0.288678
-0.0377014
0.273509
-0.0376721
0.259198
-0.0375977
0.245611
-0.0372435
0.232638
-0.0367908
0.220398
-0.0363397
0.208845
-0.0358067
0.197877
-0.035148
0.187454
-0.0344052
0.177596
-0.0336173
0.168327
-0.0327311
0.159568
-0.0317298
0.151277
-0.03063
0.143446
-0.0294387
0.136029
-0.0281464
0.128983
-0.026736
0.122291
-0.025224
0.115944
-0.0236397
0.109957
-0.0220484
0.104347
-0.0201045
0.0987865
-0.017595
0.0922033
-0.0138045
0.0826881
-0.00754278
0.0628398
0.0226289
-0.000610225
0.968423
-0.00534411
0.960934
-0.00947247
0.91788
-0.0129735
0.873588
-0.0163784
0.833077
-0.019173
0.793823
-0.021798
0.756701
-0.0242402
0.721088
-0.0267749
0.687162
-0.0292212
0.6545
-0.0317624
0.623397
-0.0338263
0.593413
-0.0355913
0.564914
-0.0372989
0.537634
-0.0389027
0.511453
-0.0402015
0.486339
-0.0413284
0.462325
-0.0423152
0.439364
-0.043177
0.417374
-0.0439044
0.39636
-0.0444921
0.376242
-0.0449208
0.357036
-0.0451247
0.338645
-0.0449143
0.320932
-0.0444678
0.304158
-0.0442774
0.288487
-0.044224
0.273456
-0.0439062
0.258881
-0.0434427
0.245148
-0.0430722
0.232267
-0.0426145
0.219941
-0.0419672
0.208198
-0.0412098
0.19712
-0.0403932
0.186637
-0.0394867
0.176689
-0.0384496
0.16729
-0.0373218
0.15844
-0.0361163
0.150072
-0.0348149
0.142144
-0.0334022
0.134616
-0.0318885
0.127469
-0.0303056
0.120708
-0.0286594
0.114298
-0.0269272
0.108225
-0.0251855
0.102606
-0.0228443
0.0964453
-0.0198837
0.0892428
-0.0151903
0.0779947
-0.00793215
0.0555817
0.0146968
-0.00143803
0.969861
-0.00701453
0.96651
-0.0118832
0.922748
-0.0164167
0.878122
-0.0201928
0.836853
-0.023785
0.797415
-0.0268352
0.759751
-0.0295488
0.723802
-0.0318531
0.689466
-0.0338116
0.656458
-0.0355834
0.625169
-0.0372957
0.595125
-0.0390019
0.56662
-0.0404158
0.539048
-0.0416883
0.512726
-0.0430012
0.487652
-0.0442174
0.463542
-0.0453094
0.440456
-0.0462648
0.41833
-0.0470767
0.397172
-0.0477535
0.376919
-0.0483191
0.357602
-0.0488338
0.33916
-0.049514
0.321612
-0.0502042
0.304848
-0.0503866
0.28867
-0.0501443
0.273213
-0.0499061
0.258643
-0.0495962
0.244838
-0.0489617
0.231633
-0.0481838
0.219163
-0.0473904
0.207404
-0.0465019
0.196231
-0.0454622
0.185597
-0.0443182
0.175545
-0.0431252
0.166097
-0.0418357
0.157151
-0.0404317
0.148668
-0.0389289
0.140641
-0.0373445
0.133031
-0.0356835
0.125808
-0.0339205
0.118945
-0.0320739
0.112452
-0.0303238
0.106475
-0.0282433
0.100525
-0.0256495
0.0938515
-0.0219518
0.0855451
-0.0158033
0.0718461
-0.00658978
0.0463681
0.00810698
-0.00219018
0.972051
-0.0078795
0.9722
-0.0128118
0.927681
-0.0174865
0.882796
-0.0215697
0.840936
-0.0250697
0.800915
-0.0282369
0.762918
-0.0314769
0.727042
-0.034584
0.692573
-0.0376669
0.659541
-0.0403943
0.627896
-0.0429294
0.59766
-0.0451972
0.568888
-0.0475186
0.54137
-0.049574
0.514781
-0.0512609
0.489339
-0.0527419
0.465023
-0.0540439
0.441758
-0.0551773
0.419463
-0.0561255
0.39812
-0.0568886
0.377682
-0.0574329
0.358146
-0.0576894
0.339416
-0.0574777
0.321401
-0.0569191
0.304289
-0.0565122
0.288263
-0.0562647
0.272966
-0.0557634
0.258141
-0.0550617
0.244136
-0.0544216
0.230992
-0.0536825
0.218424
-0.0527156
0.206438
-0.0516018
0.195117
-0.0504236
0.184419
-0.0491659
0.174287
-0.0477706
0.164701
-0.0462773
0.155658
-0.0447129
0.147103
-0.0430712
0.139
-0.0413396
0.1313
-0.0395185
0.123987
-0.0376515
0.117078
-0.0358091
0.110609
-0.0338882
0.104554
-0.0313903
0.0980271
-0.0283128
0.090774
-0.0235643
0.0807965
-0.015522
0.0638039
-0.00439176
0.0352379
0.00371522
-0.0032358
0.975287
-0.00936042
0.978324
-0.0146804
0.933
-0.0197941
0.88791
-0.0242296
0.845372
-0.0284317
0.805117
-0.0323161
0.766802
-0.035383
0.730109
-0.0382433
0.695433
-0.0407751
0.662073
-0.0431902
0.630311
-0.0455009
0.599971
-0.0476073
0.570994
-0.0493551
0.543117
-0.0511258
0.516552
-0.0528781
0.491091
-0.0544921
0.466637
-0.0559474
0.443214
-0.0572165
0.420732
-0.0582989
0.399202
-0.0591944
0.378577
-0.0599229
0.358875
-0.0605418
0.340035
-0.0612484
0.322107
-0.0619641
0.305005
-0.0621851
0.288484
-0.0618517
0.272632
-0.0614167
0.257706
-0.0608981
0.243617
-0.0600212
0.230116
-0.058944
0.217346
-0.0578394
0.205333
-0.056651
0.193929
-0.0553045
0.183073
-0.0538344
0.172817
-0.0523216
0.163189
-0.0507302
0.154066
-0.0490382
0.145411
-0.047255
0.137216
-0.0453993
0.129444
-0.0434988
0.122087
-0.0415608
0.11514
-0.0396832
0.108732
-0.0373597
0.102231
-0.0345575
0.0952249
-0.0305898
0.0868063
-0.0243912
0.0745979
-0.0149963
0.054409
-0.00271132
0.0229529
0.0010039
-0.00323639
0.978523
-0.00993245
0.98502
-0.0151881
0.938256
-0.0200489
0.892771
-0.0244879
0.849811
-0.0284953
0.809125
-0.032377
0.770684
-0.0362747
0.734007
-0.0398315
0.69899
-0.0433604
0.665602
-0.0466927
0.633644
-0.0497195
0.602998
-0.0526891
0.573964
-0.0556398
0.546068
-0.0582012
0.519113
-0.0604178
0.493308
-0.0623922
0.468611
-0.0641379
0.444959
-0.0656555
0.42225
-0.0669362
0.400483
-0.0679777
0.379619
-0.0687428
0.35964
-0.0691688
0.340461
-0.0690705
0.322009
-0.0685083
0.304443
-0.0679496
0.287925
-0.0675552
0.272238
-0.0669381
0.257089
-0.0660388
0.242718
-0.0651584
0.229235
-0.0641994
0.216387
-0.0629943
0.204128
-0.0615976
0.192532
-0.0601325
0.181608
-0.0586194
0.171304
-0.0569742
0.161543
-0.0552295
0.152322
-0.0534228
0.143604
-0.0515561
0.13535
-0.0496273
0.127515
-0.0476406
0.1201
-0.0457959
0.113295
-0.0436992
0.106635
-0.0411198
0.0996511
-0.0378051
0.0919103
-0.0328967
0.0818979
-0.0247941
0.0664953
-0.0126526
0.0422675
-0.00161416
0.0119145
-0.000610266
-0.00341208
0.981935
-0.0101115
0.99172
-0.0158042
0.943949
-0.0211394
0.898106
-0.0259336
0.854605
-0.0305568
0.813748
-0.0346245
0.774752
-0.0382798
0.737662
-0.0417381
0.702448
-0.0449399
0.668804
-0.0478554
0.636559
-0.0508021
0.605944
-0.0534196
0.576581
-0.0557675
0.548416
-0.0581742
0.52152
-0.0605142
0.495648
-0.0626917
0.470789
-0.0646793
0.446947
-0.066435
0.424006
-0.0679524
0.402001
-0.0692215
0.380888
-0.070257
0.360675
-0.0711051
0.341309
-0.0719379
0.322842
-0.0727844
0.305289
-0.0731683
0.288309
-0.0728684
0.271938
-0.0723166
0.256537
-0.0716819
0.242084
-0.0706673
0.228221
-0.0693614
0.215081
-0.0679964
0.202763
-0.0665837
0.191119
-0.0650315
0.180056
-0.0633332
0.169606
-0.0615981
0.159808
-0.0598113
0.150535
-0.0579496
0.141743
-0.0560157
0.133416
-0.0540208
0.12552
-0.0521735
0.118253
-0.0501938
0.111315
-0.0477757
0.104217
-0.0448513
0.0967267
-0.0408411
0.0879002
-0.0343459
0.0754027
-0.0237892
0.0559386
-0.00865672
0.027135
-0.00109572
0.00435351
-0.00170598
-0.00248174
0.984417
-0.00884671
0.998085
-0.0145583
0.94966
-0.0196514
0.903199
-0.0241546
0.859108
-0.0284646
0.818058
-0.0327655
0.779053
-0.0371656
0.742062
-0.0413139
0.706597
-0.0453813
0.672871
-0.0494765
0.640654
-0.0532022
0.60967
-0.0569239
0.580303
-0.0605676
0.55206
-0.0638474
0.5248
-0.0667972
0.498598
-0.0694888
0.47348
-0.0719066
0.449365
-0.0740356
0.426135
-0.075874
0.403839
-0.0774109
0.382425
-0.078606
0.36187
-0.0794016
0.342105
-0.0796395
0.32308
-0.0792605
0.30491
-0.0787175
0.287766
-0.0783103
0.271531
-0.0777087
0.255936
-0.0767196
0.241094
-0.0756613
0.227162
-0.0745492
0.213969
-0.0732029
0.201417
-0.0716113
0.189528
-0.0699288
0.178373
-0.0682418
0.167919
-0.0664461
0.158013
-0.0645546
0.148643
-0.0626153
0.139803
-0.0606441
0.131445
-0.0587738
0.12365
-0.0568712
0.11635
-0.0546144
0.109059
-0.0520419
0.101644
-0.0486402
0.093325
-0.0430942
0.0823542
-0.0334801
0.0657886
-0.0186452
0.0411038
-0.00460233
0.013092
-0.000395197
0.000146379
-0.00210118
-0.00250477
0.986922
-0.00796802
1.00355
-0.013554
0.955246
-0.0192462
0.908891
-0.0240751
0.863937
-0.0287558
0.822738
-0.033065
0.783362
-0.0371803
0.746177
-0.0412608
0.710677
-0.0449012
0.676512
-0.0484784
0.644232
-0.0522166
0.613408
-0.0556209
0.583707
-0.0588012
0.55524
-0.0619953
0.527994
-0.0651271
0.50173
-0.0680955
0.476449
-0.0708756
0.452145
-0.0733762
0.428635
-0.0755999
0.406063
-0.0775166
0.384342
-0.0791266
0.363481
-0.0804583
0.343436
-0.0816532
0.324275
-0.0828205
0.306078
-0.0835524
0.288498
-0.0834815
0.27146
-0.0829845
0.255439
-0.0823589
0.240469
-0.0813403
0.226144
-0.0799199
0.212549
-0.0783388
0.199836
-0.0767363
0.187925
-0.0750476
0.176684
-0.0731902
0.166061
-0.0712912
0.156114
-0.069385
0.146737
-0.0674476
0.137866
-0.0655412
0.129538
-0.0636764
0.121785
-0.0615602
0.114234
-0.0591492
0.106648
-0.0560398
0.0985347
-0.0511554
0.0884406
-0.0426922
0.073891
-0.029162
0.0522583
-0.0115152
0.023457
-0.00231904
0.00389584
-2.03659e-05
-0.0021523
-0.00212154
-0.00108815
0.98801
-0.0063561
1.00882
-0.0109477
0.959838
-0.0156369
0.913581
-0.0201021
0.868403
-0.0247208
0.827357
-0.0293125
0.787954
-0.0338095
0.750674
-0.0384446
0.715312
-0.0433403
0.681407
-0.0480866
0.648978
-0.0524736
0.617795
-0.0569494
0.588183
-0.0615341
0.559825
-0.0657568
0.532217
-0.0696783
0.505651
-0.0733711
0.480141
-0.0767543
0.455528
-0.0798295
0.43171
-0.0825544
0.408787
-0.0849114
0.386699
-0.086869
0.365438
-0.0883731
0.344941
-0.0892955
0.325197
-0.089403
0.306185
-0.0891118
0.288207
-0.0889048
0.271253
-0.088509
0.255043
-0.0875972
0.239557
-0.0864434
0.22499
-0.0852132
0.211319
-0.0837961
0.198419
-0.0820821
0.186211
-0.0801913
0.174794
-0.078329
0.164199
-0.0764228
0.154207
-0.0744477
0.144762
-0.0724734
0.135892
-0.070596
0.127661
-0.0685759
0.119765
-0.0662623
0.11192
-0.0633673
0.103753
-0.0589972
0.0941646
-0.0514164
0.0808597
-0.0386403
0.0611149
-0.0198188
0.0334369
-0.00533957
0.0089778
-0.000738193
-0.000705534
0.000202376
-0.00309287
-0.00191917
0.000372026
0.987638
-0.00485907
1.01405
-0.00932045
0.964299
-0.0139651
0.918225
-0.0184437
0.872881
-0.0229863
0.8319
-0.0274963
0.792464
-0.0319616
0.755139
-0.0362161
0.719567
-0.040363
0.685554
-0.0447171
0.653332
-0.0493342
0.622412
-0.0537031
0.592552
-0.0577834
0.563905
-0.0620078
0.536441
-0.0662052
0.509849
-0.0702469
0.484183
-0.074071
0.459352
-0.0776709
0.43531
-0.0809494
0.412066
-0.083858
0.389607
-0.0863862
0.367966
-0.088541
0.347095
-0.0904257
0.327082
-0.0922181
0.307978
-0.0936135
0.289602
-0.0940826
0.271722
-0.093851
0.254811
-0.0933689
0.239075
-0.0924947
0.224116
-0.0911068
0.209931
-0.0893464
0.196658
-0.0874955
0.18436
-0.0856414
0.17294
-0.0836219
0.16218
-0.0815332
0.152119
-0.079515
0.142744
-0.0775991
0.133976
-0.075613
0.125675
-0.0733459
0.117498
-0.0705813
0.109156
-0.0666155
0.099787
-0.0597295
0.0872786
-0.0475203
0.0686505
-0.0283642
0.0419587
-0.0100712
0.0151439
-0.00235891
0.00126549
-7.69448e-05
-0.0029875
0.000221462
-0.00339127
-0.00169771
0.00189619
0.985741
-0.00137687
1.01732
-0.00496178
0.967884
-0.00881276
0.922076
-0.0128899
0.876958
-0.0172298
0.83624
-0.0214994
0.796733
-0.0263236
0.759964
-0.0315226
0.724766
-0.0369629
0.690994
-0.042172
0.658541
-0.0472631
0.627503
-0.0526927
0.597981
-0.0582987
0.569511
-0.0635794
0.541722
-0.0686666
0.514936
-0.0735652
0.489082
-0.0782404
0.464027
-0.0826249
0.439695
-0.0866476
0.416089
-0.0902469
0.393207
-0.093384
0.371103
-0.0960079
0.349719
-0.0979931
0.329067
-0.0990449
0.309029
-0.0993555
0.289913
-0.0996176
0.271984
-0.0996739
0.254868
-0.0990886
0.23849
-0.097983
0.22301
-0.0966352
0.208583
-0.0951365
0.195159
-0.0933382
0.182562
-0.0911893
0.170791
-0.089012
0.160002
-0.0869184
0.150025
-0.0848296
0.140655
-0.0827276
0.131874
-0.0804014
0.123348
-0.0776801
0.114777
-0.0739651
0.105441
-0.0676694
0.0934913
-0.0559295
0.0755388
-0.0365877
0.0493087
-0.0156719
0.0210429
-0.00442928
0.00390123
-0.000768567
-0.00239522
0.000223125
-0.00397919
0.000219587
-0.00338774
-0.00147812
0.00299176
0.98275
0.00103903
1.01927
-0.0019079
0.970831
-0.00572764
0.925896
-0.00969217
0.880923
-0.0139658
0.840513
-0.0185282
0.801296
-0.0228907
0.764326
-0.0270344
0.72891
-0.0317054
0.695665
-0.0367478
0.663583
-0.0421451
0.632901
-0.0472918
0.603128
-0.0523595
0.574579
-0.0577515
0.547114
-0.0632077
0.520392
-0.0685856
0.494459
-0.0737987
0.46924
-0.0787838
0.44468
-0.0835141
0.420819
-0.0878549
0.397548
-0.0917365
0.374985
-0.0951282
0.353111
-0.0980766
0.332015
-0.100811
0.311763
-0.103281
0.292383
-0.104766
0.273469
-0.105162
0.255264
-0.105008
0.238336
-0.104423
0.222425
-0.10326
0.207421
-0.101437
0.193336
-0.0992207
0.180346
-0.0970051
0.168575
-0.0946884
0.157685
-0.0922802
0.147617
-0.0898759
0.138251
-0.0874165
0.129415
-0.0846531
0.120585
-0.0810721
0.111196
-0.0751426
0.0995111
-0.0638995
0.0822482
-0.0444107
0.05605
-0.0215468
0.0264448
-0.0073171
0.00681321
-0.00221007
-0.00120581
-0.000634971
-0.00397031
-0.000111486
-0.00450267
4.19147e-05
-0.00354114
-0.00143621
0.00581149
0.976938
0.0042954
1.02079
0.0023636
0.972763
1.05071e-05
0.928249
-0.00345645
0.88439
-0.00715167
0.844208
-0.0109195
0.805064
-0.0158796
0.769286
-0.021384
0.734414
-0.0267635
0.701045
-0.0321446
0.668965
-0.0378667
0.638623
-0.0441689
0.60943
-0.0506744
0.581084
-0.0570329
0.553472
-0.0633743
0.526733
-0.0696572
0.500742
-0.0758132
0.475396
-0.0817923
0.450659
-0.087465
0.426492
-0.0927578
0.40284
-0.0975586
0.379786
-0.101777
0.357329
-0.105306
0.335545
-0.107896
0.314353
-0.109315
0.293802
-0.110345
0.2745
-0.111162
0.256081
-0.111299
0.238473
-0.110578
0.221703
-0.109215
0.206059
-0.107553
0.191674
-0.105647
0.17844
-0.103206
0.166134
-0.100385
0.154864
-0.0976752
0.144908
-0.0948164
0.135392
-0.0917508
0.126349
-0.0879801
0.116814
-0.0820961
0.105312
-0.0712779
0.088693
-0.0515934
0.0625637
-0.0272283
0.0316848
-0.0106507
0.00986717
-0.00412099
0.000283532
-0.00191619
-0.00341062
-0.00108632
-0.00480018
-0.00064982
-0.00493917
-0.000262171
-0.00392879
-0.00169838
0.00624702
0.970691
0.00649862
1.02054
0.00482288
0.974439
0.00241672
0.930655
-7.28696e-05
0.886879
-0.00358354
0.847719
-0.0073959
0.808876
-0.0110398
0.77293
-0.0152993
0.738674
-0.0199751
0.705721
-0.0254296
0.674419
-0.0311221
0.644315
-0.0367317
0.61504
-0.0426958
0.587048
-0.0491754
0.559952
-0.0558595
0.533418
-0.0626351
0.507518
-0.0694246
0.482186
-0.0760928
0.457327
-0.0825342
0.432933
-0.088645
0.408951
-0.0943256
0.385466
-0.0995343
0.362538
-0.104084
0.340094
-0.108187
0.318456
-0.112095
0.297709
-0.115062
0.277467
-0.116734
0.257752
-0.117329
0.239068
-0.117221
0.221595
-0.116508
0.205346
-0.114931
0.190096
-0.112376
0.175885
-0.109557
0.163315
-0.106519
0.151826
-0.103071
0.14146
-0.0994148
0.131735
-0.0949929
0.121927
-0.0886024
0.110424
-0.0777896
0.094499
-0.0581219
0.0690253
-0.0324549
0.0368967
-0.0134427
0.0126726
-0.00518995
0.00161446
-0.00212706
-0.00277936
-0.00101089
-0.00452678
-0.000623865
-0.0051872
-0.000490169
-0.00507287
-0.000285693
-0.00413326
-0.00198407
0.00967709
0.961014
0.0100065
1.02021
0.00957233
0.974873
0.00797847
0.932249
0.00663803
0.88822
0.00398301
0.850374
1.37775e-05
0.812845
-0.00427854
0.777222
-0.00899067
0.743386
-0.0141809
0.710911
-0.019532
0.67977
-0.0254542
0.650238
-0.0321741
0.62176
-0.0392308
0.594105
-0.046384
0.567105
-0.0538155
0.540849
-0.0614307
0.515133
-0.069118
0.489873
-0.0767804
0.46499
-0.0843078
0.44046
-0.0915935
0.416237
-0.0985054
0.392378
-0.1048
0.368832
-0.110406
0.3457
-0.115083
0.323133
-0.118371
0.300997
-0.120604
0.279699
-0.122524
0.259673
-0.123834
0.240378
-0.124144
0.221905
-0.123248
0.20445
-0.121461
0.188309
-0.119479
0.173903
-0.116722
0.160558
-0.113032
0.148136
-0.108447
0.136876
-0.103091
0.126379
-0.0957894
0.114626
-0.0843386
0.098973
-0.063982
0.0741423
-0.0365903
0.0416336
-0.0148327
0.015139
-0.00365852
0.00149845
0.00121383
-0.0032579
0.00300407
-0.00456959
0.00315676
-0.00467947
0.00238373
-0.00441417
0.00124986
-0.00393901
0.000318326
-0.00320173
-0.00166574
0.00855155
0.952463
0.0106238
1.01814
0.0114318
0.974065
0.00988335
0.933797
0.00778681
0.890316
0.00615022
0.852011
0.00406493
0.814931
0.000980647
0.780307
-0.00281386
0.74718
-0.00731315
0.71541
-0.0125747
0.685032
-0.0180651
0.655728
-0.0237832
0.627478
-0.0301466
0.600468
-0.0372457
0.574204
-0.0448182
0.548421
-0.0527723
0.523087
-0.0610167
0.498118
-0.0693765
0.473349
-0.077694
0.448778
-0.0858169
0.42436
-0.0936217
0.400183
-0.100962
0.376172
-0.107739
0.352478
-0.113831
0.329225
-0.119477
0.306643
-0.124606
0.284828
-0.128193
0.263261
-0.130271
0.242456
-0.131133
0.222766
-0.131116
0.204434
-0.13034
0.187532
-0.128001
0.171564
-0.12415
0.156707
-0.119689
0.143675
-0.113766
0.130952
-0.105357
0.11797
-0.0922427
0.101511
-0.0698659
0.0765962
-0.0396719
0.0439484
-0.0134476
0.0154093
0.0014735
0.000217991
0.00827801
-0.00530606
0.0105954
-0.00557524
0.010581
-0.00455525
0.00921542
-0.00331388
0.00688063
-0.00207938
0.00407858
-0.00113696
0.00145724
-0.000580386
-0.000208506
0.0120663
0.940396
0.0128054
1.0174
0.0153768
0.971494
0.0158583
0.933316
0.0145077
0.891667
0.0121213
0.854397
0.00948472
0.817567
0.00637231
0.783419
0.00275579
0.750797
-0.00158907
0.719755
-0.00637176
0.689814
-0.0120485
0.661405
-0.0187049
0.634134
-0.0256766
0.60744
-0.0330942
0.581622
-0.0410907
0.556418
-0.0495794
0.531576
-0.058491
0.507029
-0.0676879
0.482546
-0.0770409
0.458131
-0.0864004
0.433719
-0.0955466
0.409329
-0.10431
0.384935
-0.112472
0.360641
-0.119734
0.336487
-0.125678
0.312587
-0.130039
0.28919
-0.133535
0.266756
-0.136304
0.245225
-0.138278
0.22474
-0.138965
0.205121
-0.137587
0.186155
-0.135142
0.169119
-0.13201
0.153575
-0.126344
0.138009
-0.117254
0.121862
-0.101924
0.102641
-0.0763003
0.0758874
-0.0421116
0.0424075
-0.0120137
0.0138504
0.00609658
-0.00270096
0.0138827
-0.00756817
0.0158896
-0.00731288
0.0155692
-0.00525483
0.0139356
-0.00292173
0.0114314
-0.000809645
0.00836338
0.000988632
0.00503743
0.002189
0.00188472
0.00257232
0.00167622
0.0117469
0.928649
0.013041
1.0161
0.0136951
0.97084
0.0141482
0.932863
0.0141258
0.891689
0.0136836
0.854839
0.0126366
0.818614
0.0102768
0.785779
0.00782281
0.753251
0.00456838
0.723009
0.000243696
0.694139
-0.00448024
0.666129
-0.00966621
0.63932
-0.0158779
0.613652
-0.022918
0.588662
-0.0306668
0.564167
-0.0391772
0.540086
-0.0483577
0.51621
-0.0580315
0.49222
-0.0680166
0.468116
-0.0780811
0.443784
-0.0880721
0.41932
-0.0978152
0.394678
-0.107093
0.369919
-0.115739
0.345133
-0.123802
0.32065
-0.131418
0.296806
-0.137712
0.27305
-0.142231
0.249744
-0.145025
0.227535
-0.146016
0.206112
-0.146254
0.186392
-0.14504
0.167905
-0.139666
0.148201
-0.129595
0.127938
-0.112726
0.104994
-0.0829491
0.0728637
-0.0461671
0.0391053
-0.0159457
0.0121861
0.00113318
-0.0032285
0.0091196
-0.0106874
0.0120934
-0.010542
0.0129169
-0.00813635
0.0122864
-0.00462432
0.0107914
-0.00142682
0.00863211
0.00134969
0.00611289
0.00350786
0.00348729
0.00481459
0.00121438
0.00484523
0.0028906
0.0135192
0.91513
0.0184182
1.0112
0.0180031
0.971255
0.0181633
0.932703
0.018772
0.891081
0.0171533
0.856458
0.0161375
0.81963
0.0145261
0.78739
0.0117797
0.755997
0.00874802
0.726041
0.00529375
0.697593
0.000624448
0.670798
-0.00511521
0.64506
-0.0113997
0.619936
-0.0183688
0.595631
-0.026144
0.571942
-0.0347452
0.548688
-0.0441752
0.52564
-0.0543313
0.502376
-0.0650718
0.478856
-0.0762191
0.454931
-0.0874906
0.430592
-0.098641
0.405829
-0.109532
0.38081
-0.119882
0.355483
-0.129103
0.329871
-0.136502
0.304205
-0.142556
0.279104
-0.147457
0.254645
-0.151026
0.231103
-0.154476
0.209563
-0.155339
0.187254
-0.150596
0.163162
-0.141048
0.138653
-0.122545
0.109435
-0.0906012
0.0730503
-0.0580325
0.040295
-0.0342789
0.0153517
-0.0233636
0.00127086
-0.0189529
-0.00763921
-0.0154505
-0.0141898
-0.0109774
-0.0150151
-0.00617594
-0.0129378
-0.00264709
-0.00815317
-0.00081676
-0.00325715
-0.000161732
0.000694657
-7.32615e-05
0.00341939
-0.000252325
0.00499366
-0.000321569
0.00491447
0.00256903
0.0072828
0.907847
0.0136934
1.00479
0.0147003
0.970248
0.0158477
0.931555
0.0170393
0.889889
0.0174577
0.85604
0.0167689
0.820319
0.0163344
0.787825
0.0153079
0.757024
0.0132417
0.728107
0.0103279
0.700507
0.00708055
0.674045
0.00320189
0.648939
-0.00197544
0.625114
-0.00822649
0.601882
-0.015417
0.579132
-0.0236056
0.556876
-0.0328537
0.534888
-0.0431267
0.512649
-0.0541956
0.489925
-0.0657384
0.466474
-0.077603
0.442456
-0.0896139
0.41784
-0.101593
0.392788
-0.113181
0.367071
-0.124131
0.340821
-0.134515
0.314589
-0.143825
0.288414
-0.151916
0.262735
-0.158155
0.237342
-0.161245
0.212653
-0.159392
0.185401
-0.151095
0.154865
-0.13282
0.120378
-0.104607
0.0812213
-0.0803595
0.0488031
-0.0669452
0.0268807
-0.0622836
0.0106901
-0.0574134
-0.0035994
-0.0512674
-0.0137851
-0.0437079
-0.0217493
-0.0344653
-0.0242577
-0.0247478
-0.0226553
-0.0157239
-0.0171771
-0.00914197
-0.00983904
-0.00519809
-0.00324923
-0.00326265
0.00148394
-0.00188833
0.00361934
-0.000788539
0.00381468
0.00178049
0.00961483
0.898233
0.0171534
0.997254
0.0165197
0.970881
0.0182578
0.929817
0.0188872
0.88926
0.0196663
0.855261
0.0190026
0.820982
0.0180519
0.788776
0.0168152
0.75826
0.0154634
0.729459
0.0135865
0.702384
0.0102847
0.677347
0.00609874
0.653125
0.00137774
0.629835
-0.00434187
0.607602
-0.0111409
0.585931
-0.018912
0.564647
-0.0279754
0.543951
-0.038322
0.522996
-0.0497543
0.501358
-0.0620915
0.478811
-0.075001
0.455366
-0.0883341
0.431173
-0.101966
0.40642
-0.115301
0.380406
-0.128115
0.353635
-0.139366
0.32584
-0.148599
0.297647
-0.15702
0.271156
-0.1625
0.242822
-0.162187
0.21234
-0.158065
0.181279
-0.141196
0.137997
-0.118987
0.0981691
-0.101196
0.06343
-0.0955675
0.0431743
-0.0925563
0.0238696
-0.0877703
0.00590411
-0.0820624
-0.00930725