/*--------------------------------*- C++ -*----------------------------------*\
| =========                 |                                                 |
| \\      /  F ield         | OpenFOAM: The Open Source CFD Toolbox           |
|  \\    /   O peration     | Version:  v1912                                 |
|   \\  /    A nd           | Website:  www.openfoam.com                      |
|    \\/     M anipulation  |                                                 |
\*---------------------------------------------------------------------------*/
FoamFile
{
    version     2.0;
    format      ascii;
    class       volVectorField;
    location    "0.16";
    object      U;
}
// * * * * * * * * * * * * * * * * * * * * * * * * * * * * * * * * * * * * * //

dimensions      [0 1 -1 0 0 0 0];


internalField   nonuniform List<vector> 
6600
(
(39.8434 -0.0479322 0)
(40.0996 -0.0446322 9.71327e-21)
(40.1632 0.0608268 6.82207e-19)
(40.2168 0.167087 0)
(40.2753 0.277226 8.26831e-19)
(40.3311 0.414146 2.7618e-20)
(40.3785 0.567322 -3.06628e-20)
(40.4358 0.747016 -3.45222e-20)
(40.4639 0.907752 7.274e-19)
(40.5074 1.1231 -1.17553e-19)
(40.5351 1.31471 0)
(40.5497 1.54564 -9.75037e-19)
(40.5319 1.80839 0)
(40.5114 2.06789 -1.09062e-18)
(40.4964 2.32743 -1.62232e-18)
(40.4314 2.60768 -9.00401e-19)
(40.3718 2.8987 0)
(40.2859 3.20271 0)
(40.1936 3.52201 1.66265e-18)
(40.076 3.86289 -1.54846e-18)
(39.9466 4.21868 -2.37709e-19)
(39.8066 4.59856 -9.31959e-19)
(39.6588 4.99819 -1.79319e-18)
(39.4948 5.41466 4.19599e-19)
(39.2665 5.80854 1.57867e-18)
(39.0746 6.23665 0)
(38.902 6.74094 4.10283e-18)
(38.6404 7.28063 0)
(38.3352 7.81503 -2.18698e-18)
(38.0821 8.39788 -1.4725e-18)
(37.8109 9.0438 -3.32879e-19)
(37.4924 9.71334 -1.91923e-18)
(37.1867 10.4185 -8.01321e-19)
(36.8981 11.1779 1.70059e-18)
(36.5849 11.9908 3.41446e-19)
(36.2608 12.845 2.10636e-18)
(35.9655 13.7615 4.04904e-18)
(35.6843 14.7546 4.12647e-18)
(35.4162 15.8085 -3.07985e-18)
(35.1744 16.9366 3.32996e-18)
(34.9481 18.1359 1.80315e-18)
(34.7566 19.4284 0)
(34.5974 20.7881 -5.93538e-19)
(34.4713 22.2407 1.4172e-18)
(34.403 23.7686 0)
(34.4176 25.4511 -2.94327e-19)
(34.4353 27.0825 -9.54296e-19)
(34.7274 29.1572 0)
(33.1438 29.8323 0)
(23.6685 22.7414 -1.28027e-18)
(39.7478 -0.0389789 5.70101e-19)
(40.1823 -0.0608777 -5.67638e-19)
(40.2497 0.0713227 0)
(40.2953 0.215626 -1.05461e-20)
(40.3451 0.368032 7.13102e-19)
(40.3922 0.536436 2.52963e-20)
(40.4543 0.723053 -4.58055e-23)
(40.5039 0.885559 -3.11591e-20)
(40.57 1.11486 0)
(40.5924 1.31022 -1.22406e-18)
(40.6073 1.53057 -4.46288e-20)
(40.6217 1.74815 7.76615e-19)
(40.6469 1.95108 8.36363e-19)
(40.6452 2.19765 6.65342e-19)
(40.6317 2.46785 -4.35334e-21)
(40.6289 2.74155 9.37965e-20)
(40.5875 3.0422 -8.49657e-19)
(40.5282 3.35747 0)
(40.4517 3.68984 0)
(40.3606 4.04269 1.60174e-18)
(40.2489 4.41123 2.31093e-19)
(40.1203 4.80328 -1.25064e-18)
(39.9632 5.21611 -1.17704e-18)
(39.778 5.6506 -1.392e-18)
(39.635 6.1885 -1.18936e-18)
(39.44 6.72713 -5.01083e-19)
(39.1634 7.21013 -6.6854e-19)
(38.9213 7.73314 -6.88645e-19)
(38.7267 8.3437 2.17563e-18)
(38.4741 8.96152 2.97801e-19)
(38.207 9.58192 -2.88884e-18)
(37.9688 10.2673 2.69706e-18)
(37.7215 10.9897 2.00333e-18)
(37.4421 11.7453 -2.52666e-18)
(37.1687 12.543 3.55151e-19)
(36.9243 13.4011 -2.15427e-18)
(36.6891 14.3204 1.84097e-18)
(36.4754 15.2881 -1.45552e-18)
(36.2943 16.3188 -1.06311e-18)
(36.1333 17.4131 -1.21027e-18)
(36.0058 18.5758 0)
(35.9135 19.8065 0)
(35.8727 21.0933 -2.29233e-19)
(35.9238 22.4741 1.8039e-19)
(36.0726 23.9341 -4.46385e-19)
(36.2981 25.5278 3.03904e-19)
(36.54 27.0799 2.40271e-18)
(36.9676 28.8897 0)
(35.2657 29.1623 -3.5205e-18)
(24.4331 21.5272 1.47078e-18)
(39.6597 -0.0313973 -5.6526e-20)
(40.3168 -0.0612045 5.78356e-19)
(40.3529 0.106555 5.47628e-19)
(40.4212 0.248119 -3.85405e-22)
(40.4888 0.408843 -1.18207e-19)
(40.5587 0.592373 2.28368e-20)
(40.615 0.76977 0)
(40.6842 0.983961 0)
(40.7153 1.16726 0)
(40.7678 1.40539 6.3167e-19)
(40.8059 1.63552 -3.90981e-20)
(40.8505 1.90544 -7.818e-19)
(40.8276 2.2163 -4.65379e-19)
(40.8347 2.48679 9.16307e-19)
(40.814 2.78365 5.27201e-19)
(40.768 3.09471 -8.71806e-20)
(40.7231 3.41886 1.68958e-18)
(40.6542 3.75937 -8.72235e-19)
(40.5787 4.11589 -1.03597e-18)
(40.4823 4.49507 0)
(40.3744 4.89035 -7.31286e-19)
(40.2591 5.30967 1.00489e-18)
(40.1395 5.74954 1.19113e-18)
(40.0057 6.19781 1.40954e-18)
(39.8048 6.61474 1.2635e-18)
(39.6572 7.09216 -1.6182e-19)
(39.5351 7.65149 -2.5936e-19)
(39.3174 8.22163 -8.18431e-19)
(39.0621 8.77578 -3.51022e-19)
(38.8712 9.39197 1.37003e-18)
(38.6662 10.0675 4.63885e-19)
(38.4218 10.7538 0)
(38.2011 11.4768 -2.3764e-18)
(38.0087 12.2476 6.53802e-19)
(37.8039 13.0629 1.43833e-18)
(37.5998 13.907 2.09857e-18)
(37.4402 14.8005 -1.11041e-18)
(37.3088 15.7575 -8.57597e-19)
(37.2076 16.7602 3.91132e-19)
(37.1537 17.8201 0)
(37.1379 18.9299 -2.8396e-19)
(37.1824 20.1114 0)
(37.2927 21.3396 0)
(37.4592 22.6242 6.3525e-19)
(37.7084 23.954 4.44646e-19)
(38.0568 25.3963 -1.55727e-18)
(38.475 26.8897 -1.59998e-18)
(38.8632 28.3426 0)
(36.8962 28.1254 -2.25117e-18)
(24.7254 19.9352 2.45284e-18)
(39.6186 0.0147918 -5.17362e-19)
(40.4492 -0.0312542 3.63268e-21)
(40.477 0.181149 -5.61816e-19)
(40.5485 0.319328 -4.74687e-19)
(40.6011 0.514219 -6.11301e-19)
(40.6573 0.708404 -2.66881e-19)
(40.7332 0.925633 -2.11962e-20)
(40.7882 1.12116 0)
(40.8632 1.38006 3.65533e-19)
(40.8895 1.59227 4.41168e-19)
(40.9135 1.84459 -3.26745e-20)
(40.9274 2.08069 -3.88705e-20)
(40.9825 2.31202 -3.44296e-19)
(40.9697 2.60657 -1.39305e-19)
(40.981 2.89786 -4.1152e-20)
(40.9878 3.20206 -7.38654e-20)
(40.9556 3.53399 -5.25842e-20)
(40.9135 3.88068 9.83237e-19)
(40.854 4.2461 1.35875e-18)
(40.7823 4.63262 0)
(40.6919 5.03587 1.27089e-19)
(40.5886 5.46236 0)
(40.4595 5.91265 0)
(40.3019 6.3778 -2.90677e-19)
(40.194 6.94328 9.21628e-19)
(40.0331 7.50922 1.04832e-18)
(39.8015 8.02636 -2.21636e-19)
(39.6145 8.58589 1.15079e-18)
(39.4748 9.22808 0)
(39.2831 9.86917 0)
(39.0929 10.5085 6.74677e-19)
(38.9365 11.2085 0)
(38.7799 11.941 6.13439e-19)
(38.6022 12.7016 1.0171e-18)
(38.4436 13.493 -1.82834e-18)
(38.3308 14.3354 -1.86162e-18)
(38.2384 15.2252 1.46993e-18)
(38.1824 16.1462 -5.4997e-19)
(38.176 17.1141 2.97261e-19)
(38.2067 18.1248 3.44078e-19)
(38.2922 19.1812 5.25334e-21)
(38.4313 20.2765 0)
(38.6407 21.4009 0)
(38.9609 22.5834 -5.61913e-19)
(39.4022 23.8117 -1.53062e-18)
(39.9272 25.1335 -5.94598e-19)
(40.4816 26.4905 -3.06051e-18)
(40.8294 27.6138 3.37969e-18)
(38.3495 26.9064 5.03729e-18)
(24.5541 18.0486 0)
(39.5886 0.0245461 -1.46988e-21)
(40.6199 -0.00682193 3.40241e-19)
(40.6391 0.248945 3.67311e-19)
(40.7236 0.374933 4.92189e-19)
(40.7957 0.570359 0)
(40.8704 0.771712 6.97558e-20)
(40.9289 0.97832 0)
(41.0063 1.21504 -1.80325e-20)
(41.0381 1.4282 -6.13752e-19)
(41.096 1.69024 -4.36814e-19)
(41.1532 1.95883 2.54072e-20)
(41.1966 2.26501 3.01981e-20)
(41.1883 2.5912 -3.35898e-20)
(41.2134 2.88025 -3.68215e-19)
(41.1926 3.21888 -8.0149e-19)
(41.164 3.56106 5.47909e-20)
(41.1326 3.91521 -1.06597e-18)
(41.0813 4.28735 8.36002e-20)
(41.0201 4.67583 -4.27365e-19)
(40.9451 5.08654 -2.30611e-19)
(40.8599 5.51421 7.497e-19)
(40.7696 5.96364 0)
(40.6806 6.43634 0)
(40.5809 6.9157 -3.92063e-19)
(40.4088 7.34898 -6.05052e-19)
(40.2965 7.84724 6.95628e-19)
(40.2257 8.43548 -1.78179e-19)
(40.0673 9.03249 0)
(39.8712 9.60115 2.3723e-19)
(39.745 10.2328 -2.64243e-19)
(39.6172 10.9253 -6.85718e-19)
(39.4591 11.6169 -8.17557e-19)
(39.3304 12.3374 3.45786e-19)
(39.2442 13.0973 -3.26939e-19)
(39.1606 13.8948 3.63798e-19)
(39.0878 14.7088 0)
(39.0741 15.5571 -4.0517e-19)
(39.1013 16.4524 -4.21288e-20)
(39.1719 17.3739 7.83226e-20)
(39.3051 18.3306 3.81233e-21)
(39.4895 19.3098 2.93333e-19)
(39.748 20.3299 0)
(40.0878 21.3712 0)
(40.4915 22.4336 -1.47387e-18)
(40.9773 23.5006 3.20858e-18)
(41.5497 24.6336 8.5821e-19)
(42.1646 25.8834 1.92756e-18)
(42.2476 26.6145 -4.16747e-18)
(39.0686 25.3258 3.98622e-19)
(23.7386 15.851 -6.89832e-18)
(39.5907 0.0499623 2.8602e-19)
(40.8015 0.0214084 -9.98405e-20)
(40.8382 0.326691 -3.74893e-19)
(40.8996 0.45777 1.23012e-19)
(40.9547 0.69263 0)
(41.0108 0.909861 2.13599e-19)
(41.0983 1.14728 -5.79239e-21)
(41.1619 1.36834 -1.40006e-19)
(41.2373 1.64675 2.67498e-19)
(41.2739 1.89185 0)
(41.2859 2.14713 1.72531e-20)
(41.332 2.40677 9.02576e-20)
(41.3879 2.67234 -1.52391e-19)
(41.3849 3.00232 2.62774e-20)
(41.4183 3.31196 3.5398e-19)
(41.4353 3.64532 -3.73791e-20)
(41.4198 4.00555 3.69166e-19)
(41.3965 4.3805 -5.43495e-20)
(41.357 4.77432 7.10766e-20)
(41.3092 5.18839 1.70784e-19)
(41.2452 5.62133 2.51197e-19)
(41.1715 6.07505 -3.90518e-21)
(41.0752 6.55631 1.40134e-19)
(40.953 7.05528 5.7154e-19)
(40.8918 7.65269 0)
(40.7755 8.23953 -5.42138e-19)
(40.5865 8.77354 1.30035e-19)
(40.4474 9.34977 7.57102e-22)
(40.3706 10.0116 -8.40254e-20)
(40.2511 10.6586 1.78636e-19)
(40.135 11.2949 -2.55371e-19)
(40.0641 11.9898 5.15181e-19)
(40.0061 12.71 0)
(39.9326 13.4482 0)
(39.8877 14.202 0)
(39.9056 14.9955 0)
(39.9535 15.8229 2.73819e-19)
(40.0477 16.6614 -4.96798e-19)
(40.2024 17.5267 0)
(40.4014 18.4101 4.19154e-20)
(40.6639 19.3145 -2.23096e-19)
(40.9843 20.227 -2.05412e-18)
(41.3714 21.1363 1.1254e-18)
(41.8702 22.0684 0)
(42.4931 23.0174 1.32957e-18)
(43.1824 24.0378 -4.86047e-18)
(43.7736 25.0714 3.46124e-18)
(43.6322 25.452 2.72613e-18)
(39.4417 23.5879 1.02561e-17)
(22.2408 13.3992 -7.67987e-18)
(39.6171 0.0711345 -2.85611e-19)
(40.9936 0.0394208 -3.72408e-19)
(41.0441 0.397158 2.83384e-21)
(41.1389 0.508605 -1.23921e-19)
(41.2011 0.750165 4.24199e-20)
(41.2831 0.975868 -2.51381e-21)
(41.3352 1.19971 3.24266e-20)
(41.4143 1.44796 1.40567e-19)
(41.4704 1.69651 2.08773e-20)
(41.5282 1.9745 -3.07135e-21)
(41.6163 2.29197 -7.84269e-21)
(41.6553 2.62365 -1.00587e-19)
(41.6793 2.96443 1.29486e-19)
(41.7152 3.2829 0)
(41.7055 3.65826 0)
(41.6996 4.03166 9.488e-21)
(41.6881 4.41577 1.60481e-19)
(41.6624 4.81897 0)
(41.625 5.23883 1.84536e-20)
(41.5771 5.67883 -2.72562e-19)
(41.5193 6.13674 -2.772e-19)
(41.4586 6.61256 3.55013e-20)
(41.4014 7.10719 0)
(41.3372 7.60758 -2.58433e-19)
(41.2002 8.05843 -5.40001e-20)
(41.1259 8.56807 6.02391e-20)
(41.1073 9.16286 0)
(41.0141 9.76654 0)
(40.8784 10.3339 -2.54219e-19)
(40.8141 10.9634 3.90127e-20)
(40.765 11.6495 3.16388e-19)
(40.6924 12.3214 -6.39451e-20)
(40.6497 13.011 4.11887e-21)
(40.6621 13.7282 -6.87901e-20)
(40.6922 14.4742 3.75215e-19)
(40.7387 15.2223 2.72318e-19)
(40.8509 15.9849 -2.15474e-19)
(41.0109 16.7765 4.0638e-19)
(41.2173 17.5736 -1.05904e-18)
(41.4901 18.3833 5.47775e-20)
(41.8131 19.1885 -2.72697e-19)
(42.2082 20.0048 1.06503e-18)
(42.6886 20.8197 1.81262e-18)
(43.2303 21.6267 -2.01356e-18)
(43.8306 22.4114 1.32191e-18)
(44.5088 23.3064 0)
(44.9102 24.0106 2.18458e-18)
(44.2676 24.0644 3.45515e-18)
(38.7713 21.4815 -7.00945e-18)
(19.8543 10.705 -2.15366e-18)
(39.679 0.0943765 7.69506e-20)
(41.2273 0.047656 1.30449e-19)
(41.2763 0.486663 5.85709e-22)
(41.3618 0.580902 2.87701e-20)
(41.4017 0.881445 -7.64679e-22)
(41.4762 1.09175 -6.52804e-20)
(41.5761 1.36213 5.67034e-20)
(41.6488 1.62099 -5.42142e-20)
(41.7212 1.90069 -1.81867e-20)
(41.7748 2.18258 8.08448e-20)
(41.7886 2.44324 -8.86753e-20)
(41.8561 2.72366 -3.98238e-21)
(41.9196 3.02724 1.19929e-19)
(41.9435 3.38227 -1.89327e-22)
(42.0011 3.70774 7.13272e-20)
(42.0305 4.07209 -8.23962e-20)
(42.0442 4.45678 -3.24932e-20)
(42.0471 4.85985 0)
(42.0359 5.28099 0)
(42.0188 5.72018 0)
(41.9879 6.17886 -4.40781e-22)
(41.9502 6.656 -6.65032e-20)
(41.8901 7.15875 7.56698e-20)
(41.8067 7.67977 -2.8664e-21)
(41.7961 8.30054 0)
(41.737 8.91303 0)
(41.5945 9.46275 -7.63359e-20)
(41.4953 10.0368 1.09062e-20)
(41.4793 10.6923 -9.77657e-20)
(41.432 11.3243 1.15068e-19)
(41.3819 11.9347 2.62214e-20)
(41.3874 12.597 2.76552e-19)
(41.4181 13.2756 -9.39878e-20)
(41.4351 13.9598 4.50772e-19)
(41.4819 14.6413 -2.30668e-19)
(41.6036 15.3482 -7.77148e-20)
(41.7583 16.0762 1.48217e-19)
(41.9585 16.7935 4.75608e-19)
(42.2214 17.5176 4.30378e-19)
(42.5232 18.2362 8.17404e-19)
(42.8859 18.9555 -2.51135e-19)
(43.3024 19.6603 1.67849e-18)
(43.7693 20.3341 -1.86696e-18)
(44.3324 20.9987 0)
(45.0175 21.6783 0)
(45.7401 22.4771 0)
(45.929 22.817 0)
(44.6725 22.5556 0)
(37.5848 19.2495 -4.01189e-18)
(16.5957 7.88163 6.59079e-18)
(39.7605 0.119096 -7.74518e-20)
(41.4804 0.0589044 0)
(41.5283 0.52321 0)
(41.6311 0.613834 -3.00473e-20)
(41.701 0.912685 -4.34867e-20)
(41.7952 1.16192 6.88797e-20)
(41.8543 1.38467 -9.04938e-20)
(41.9425 1.66539 5.4387e-20)
(42.0115 1.93983 -1.49981e-19)
(42.1051 2.24793 -8.69466e-20)
(42.2026 2.59413 9.16795e-20)
(42.2588 2.9454 -2.25122e-19)
(42.3115 3.29423 -2.56109e-19)
(42.3721 3.65323 0)
(42.385 4.06292 -7.52147e-20)
(42.4144 4.46205 1.00225e-19)
(42.4303 4.8766 8.73727e-23)
(42.4368 5.30995 2.59545e-19)
(42.431 5.75939 -3.18277e-19)
(42.4167 6.22717 0)
(42.3915 6.7118 0)
(42.3638 7.21167 -2.15296e-19)
(42.3394 7.72402 1.72944e-19)
(42.3094 8.23797 2.84849e-19)
(42.2081 8.69563 5.4544e-20)
(42.1625 9.1966 -2.56763e-19)
(42.1939 9.78472 3.1127e-19)
(42.1708 10.3871 -3.85606e-19)
(42.0936 10.9396 1.78368e-19)
(42.0801 11.5435 -1.56263e-19)
(42.0996 12.1995 9.36528e-20)
(42.0993 12.8283 -2.22305e-19)
(42.122 13.4603 2.7939e-19)
(42.2046 14.1045 -3.5067e-19)
(42.3197 14.7682 0)
(42.4485 15.4214 -4.31694e-19)
(42.6391 16.0665 -3.96729e-19)
(42.8774 16.7242 1.45942e-19)
(43.1542 17.369 1.0943e-18)
(43.4922 18.0086 -1.05364e-18)
(43.8716 18.6224 -2.23587e-19)
(44.31 19.2224 -1.9634e-18)
(44.8337 19.807 4.65937e-18)
(45.419 20.3719 3.46511e-19)
(46.0636 20.9542 4.01426e-19)
(46.5268 21.4197 -1.91028e-18)
(46.3946 21.5522 0)
(44.099 20.7798 3.56766e-18)
(34.9095 16.5654 -1.90524e-18)
(12.2222 4.90661 0)
(39.8634 0.145512 -6.05835e-22)
(41.7503 0.0755502 -1.56814e-22)
(41.8216 0.581518 1.68333e-19)
(41.8936 0.678715 0)
(41.9549 1.03089 3.19262e-21)
(42.0327 1.25546 1.46252e-19)
(42.1566 1.55502 0)
(42.2357 1.81093 -2.07535e-19)
(42.3257 2.1159 1.62881e-19)
(42.3677 2.39133 -1.38768e-20)
(42.4344 2.68973 -3.28017e-19)
(42.5194 2.99568 2.70638e-20)
(42.616 3.33716 1.57764e-19)
(42.6593 3.69557 0)
(42.7434 4.03704 0)
(42.7982 4.4315 0)
(42.8472 4.83864 3.45694e-19)
(42.8825 5.2684 -2.61808e-19)
(42.907 5.71431 5.96653e-19)
(42.9237 6.1784 -5.70652e-20)
(42.9288 6.6586 1.28978e-19)
(42.93 7.15484 1.4383e-19)
(42.9091 7.67354 -6.85724e-19)
(42.8671 8.20941 -5.39922e-19)
(42.9013 8.83711 0)
(42.8987 9.46625 2.66515e-19)
(42.7984 10.0213 -7.16916e-19)
(42.7289 10.5783 3.85725e-19)
(42.7623 11.2121 -2.31783e-19)
(42.7771 11.8147 1.3503e-19)
(42.7752 12.3787 -1.83674e-19)
(42.8307 12.9842 7.18288e-19)
(42.9226 13.5972 -7.32142e-19)
(43.0016 14.2065 1.10033e-18)
(43.1 14.7944 4.54507e-19)
(43.2778 15.391 -1.08044e-18)
(43.4867 15.9994 1.38587e-18)
(43.731 16.5785 -9.08135e-19)
(44.0343 17.1484 3.34771e-20)
(44.3642 17.6935 0)
(44.7455 18.224 1.57109e-18)
(45.1781 18.7289 1.1034e-18)
(45.643 19.1861 1.3521e-19)
(46.183 19.6254 -3.16104e-18)
(46.8671 20.13 -1.14492e-19)
(47.0903 20.2969 -2.24764e-18)
(46.5668 20.1605 0)
(42.984 18.7401 3.66666e-18)
(31.565 13.6328 -6.17158e-18)
(7.19665 1.90422 0)
(39.9874 0.165928 0)
(42.0506 0.0897215 0)
(42.1138 0.588779 -4.08327e-20)
(42.2139 0.678942 8.11178e-21)
(42.2824 1.02804 -1.87655e-19)
(42.389 1.27168 -1.50105e-19)
(42.4506 1.5124 0)
(42.5734 1.81367 2.08012e-19)
(42.6713 2.10787 -3.42445e-19)
(42.8141 2.44826 0)
(42.9197 2.79897 5.60559e-19)
(42.9853 3.16302 -7.86128e-20)
(43.0801 3.52246 3.36031e-20)
(43.1879 3.92902 -3.74356e-20)
(43.2433 4.36432 0)
(43.3092 4.78834 0)
(43.3589 5.23208 -1.37945e-19)
(43.4032 5.69181 -2.86191e-19)
(43.4339 6.16826 1.13956e-19)
(43.4545 6.66216 -4.48739e-20)
(43.4646 7.16887 1.01676e-19)
(43.469 7.6893 -5.75949e-20)
(43.4734 8.21596 4.39846e-19)
(43.4709 8.73882 1.75062e-19)
(43.4065 9.20563 -3.40877e-19)
(43.3765 9.68581 -4.98684e-19)
(43.4398 10.2466 2.7972e-19)
(43.4739 10.8339 4.82404e-19)
(43.4433 11.3606 0)
(43.4581 11.9226 0)
(43.5196 12.5332 0)
(43.5674 13.1052 -5.17808e-19)
(43.6216 13.6653 -3.82579e-19)
(43.7303 14.2194 -3.60306e-19)
(43.8885 14.7867 6.00171e-19)
(44.0529 15.3371 7.29466e-19)
(44.2655 15.8566 -3.01377e-19)
(44.5225 16.3756 1.01888e-18)
(44.8032 16.8682 -5.96083e-19)
(45.1356 17.3441 -8.0117e-19)
(45.5009 17.7817 -9.84875e-19)
(45.9051 18.1842 1.09812e-18)
(46.3915 18.5683 0)
(47.0164 19.0023 1.69705e-18)
(47.3721 19.2133 -9.40453e-19)
(47.3032 19.1897 1.24038e-18)
(45.9019 18.6145 0)
(40.4686 16.3055 -1.74271e-18)
(26.4993 10.0593 1.00452e-18)
(4.26001 0.319172 0)
(40.1548 0.212778 -1.3088e-19)
(42.3575 0.0983016 0)
(42.4487 0.641155 -3.09742e-19)
(42.5259 0.70421 2.1139e-19)
(42.5717 1.09392 1.83248e-19)
(42.6818 1.31455 -7.99291e-21)
(42.8071 1.62877 8.89549e-21)
(42.9175 1.90843 0)
(43.0244 2.20439 3.30487e-19)
(43.0841 2.50238 -2.47509e-19)
(43.1926 2.81519 -2.3215e-19)
(43.3421 3.15218 2.89553e-19)
(43.4453 3.51698 -2.04719e-19)
(43.5264 3.87109 -5.22151e-20)
(43.6402 4.24027 2.96591e-20)
(43.7311 4.65958 0)
(43.8172 5.08867 -3.19118e-19)
(43.8898 5.54317 3.66052e-19)
(43.9523 6.01218 6.83189e-20)
(44.0042 6.49911 -1.84857e-21)
(44.045 6.99959 6.98595e-20)
(44.0805 7.51292 0)
(44.0947 8.04376 9.53977e-20)
(44.0924 8.5898 3.89772e-19)
(44.1572 9.21137 4.31752e-19)
(44.2015 9.85007 5.01363e-19)
(44.1332 10.4084 0)
(44.072 10.9377 -3.42866e-19)
(44.1251 11.5358 -7.55682e-19)
(44.1777 12.1027 4.05316e-19)
(44.1987 12.6123 -8.70614e-19)
(44.2647 13.1491 -4.21542e-19)
(44.378 13.6857 7.36996e-19)
(44.4844 14.2161 -2.6527e-19)
(44.5908 14.7098 -6.05337e-19)
(44.7729 15.1931 -3.02182e-19)
(44.984 15.6849 -4.33683e-19)
(45.2146 16.1348 0)
(45.4986 16.5649 -7.30093e-19)
(45.7958 16.9562 1.61845e-18)
(46.1292 17.3203 9.97883e-19)
(46.5174 17.6603 -1.18457e-18)
(46.9541 17.9767 1.48977e-18)
(47.4063 18.2399 -7.56672e-19)
(47.5021 18.2717 1.9899e-18)
(47.0534 18.0272 -1.16588e-20)
(44.4735 16.9059 0)
(36.8215 13.6099 3.52581e-18)
(20.5066 6.43347 -2.96647e-18)
(1.93824 -0.257977 -1.05338e-18)
(40.3114 0.179628 1.31067e-19)
(42.6665 0.107588 -2.0152e-19)
(42.7429 0.632921 1.77809e-19)
(42.8512 0.683575 -2.07807e-19)
(42.9286 1.04871 -1.52972e-19)
(43.0396 1.26528 -1.00121e-20)
(43.1508 1.53641 5.69616e-21)
(43.2695 1.83572 0)
(43.4391 2.15617 -2.64278e-19)
(43.6142 2.48377 4.07395e-19)
(43.7414 2.84849 0)
(43.8293 3.22406 -2.54143e-20)
(43.9929 3.60085 5.78701e-21)
(44.147 4.04528 2.66921e-19)
(44.2554 4.49712 -3.87881e-19)
(44.362 4.94615 -1.6481e-21)
(44.4522 5.41811 5.12889e-20)
(44.5372 5.90319 0)
(44.6044 6.40554 -1.81109e-19)
(44.66 6.92352 3.99545e-19)
(44.7025 7.45282 -4.54271e-20)
(44.7339 7.99312 0)
(44.7591 8.53336 0)
(44.7752 9.06758 -1.84819e-19)
(44.7364 9.54799 8.20965e-20)
(44.7036 10.0087 -6.0038e-19)
(44.77 10.533 2.15373e-19)
(44.8395 11.1015 -1.22436e-19)
(44.8356 11.6001 3.73267e-19)
(44.8446 12.109 1.65157e-19)
(44.9069 12.6676 4.91717e-19)
(44.9715 13.1839 -5.39535e-19)
(45.0224 13.6753 3.48184e-19)
(45.1105 14.1397 -3.43425e-19)
(45.2675 14.6129 -3.94149e-19)
(45.4255 15.0725 -4.13002e-19)
(45.6101 15.4805 0)
(45.8376 15.8785 9.99263e-19)
(46.0711 16.2418 -3.71103e-19)
(46.3429 16.5819 -8.81787e-19)
(46.648 16.8851 1.04834e-18)
(46.9791 17.1516 -2.66356e-20)
(47.4512 17.4444 -7.36223e-19)
(47.6256 17.5274 -1.82475e-20)
(47.4986 17.4365 -1.06449e-18)
(46.1432 16.8538 -2.53416e-18)
(41.7034 15.1028 1.42067e-18)
(31.0471 10.861 0)
(11.1334 2.86253 -1.86781e-18)
(-0.0239419 -0.173625 3.59928e-18)
(40.4997 0.193813 3.88235e-22)
(43.0019 0.0844862 2.02622e-19)
(43.0746 0.627199 -6.76225e-20)
(43.1525 0.668535 -2.25583e-21)
(43.228 1.05551 1.5325e-19)
(43.3603 1.26728 0)
(43.5126 1.56296 0)
(43.6597 1.85063 -8.4825e-21)
(43.7663 2.14037 4.58777e-19)
(43.8929 2.45374 -1.63497e-19)
(44.0601 2.77752 1.34412e-20)
(44.2462 3.11348 -3.0642e-20)
(44.3792 3.49554 1.37756e-19)
(44.5037 3.85698 -1.38661e-19)
(44.6576 4.25322 5.60297e-19)
(44.7933 4.6935 -1.22867e-19)
(44.9224 5.14554 1.42418e-19)
(45.0378 5.62582 3.80751e-20)
(45.1381 6.12008 -3.9846e-19)
(45.2255 6.63181 -2.59976e-19)
(45.2992 7.15681 1.6345e-21)
(45.3631 7.6913 -6.49417e-20)
(45.4043 8.23761 0)
(45.4275 8.79311 -2.7026e-19)
(45.505 9.40789 1.26973e-21)
(45.5803 10.0575 5.1364e-20)
(45.53 10.6278 6.46888e-20)
(45.4504 11.1329 1.63491e-19)
(45.4824 11.6934 0)
(45.5389 12.2322 1.01954e-19)
(45.5553 12.6924 5.63756e-19)
(45.5898 13.1609 5.0138e-19)
(45.6791 13.6218 -2.55004e-19)
(45.7815 14.0837 5.32318e-19)
(45.8626 14.5004 -4.34255e-19)
(46.0032 14.8838 -2.61961e-19)
(46.1761 15.2769 0)
(46.3498 15.6243 -6.70244e-19)
(46.5707 15.9462 -4.20291e-19)
(46.7995 16.2258 4.69453e-19)
(47.0472 16.4732 -5.51607e-19)
(47.4377 16.7666 6.16771e-19)
(47.6029 16.8813 0)
(47.5604 16.8688 4.53643e-19)
(46.8035 16.5618 0)
(44.152 15.5515 6.20522e-19)
(37.2528 12.9341 -1.39819e-18)
(23.0862 7.51909 7.83303e-19)
(5.02823 1.06609 0)
(-1.0312 -0.0587622 2.35286e-19)
(40.6297 0.153961 5.8421e-23)
(43.317 0.03544 6.74631e-23)
(43.3792 0.548835 6.95219e-20)
(43.4725 0.585871 3.47024e-22)
(43.5745 0.930534 2.97834e-21)
(43.711 1.12332 4.63526e-22)
(43.8422 1.37788 -5.15953e-22)
(44.0123 1.67589 1.25516e-21)
(44.2401 1.99599 -1.70114e-19)
(44.4426 2.31566 -3.59789e-21)
(44.5984 2.68137 -1.99772e-21)
(44.7639 3.07866 4.55969e-21)
(44.978 3.46497 1.53803e-19)
(45.1938 3.92358 -1.82058e-19)
(45.3671 4.39377 -2.23241e-19)
(45.5264 4.87057 1.2278e-19)
(45.6672 5.37146 -1.37744e-19)
(45.7974 5.88709 -6.11067e-21)
(45.9043 6.42007 -7.06059e-21)
(45.9949 6.96809 0)
(46.0666 7.52776 -9.35957e-21)
(46.1205 8.09625 -5.00691e-21)
(46.1578 8.66086 5.59784e-21)
(46.1788 9.2167 0)
(46.1517 9.72469 0)
(46.0897 10.1798 2.40562e-19)
(46.1248 10.6755 0)
(46.2018 11.2351 -1.63704e-19)
(46.2052 11.7184 0)
(46.1756 12.1769 7.68827e-21)
(46.1908 12.6859 -2.65418e-19)
(46.2357 13.1554 1.87972e-20)
(46.2572 13.5956 -3.54988e-19)
(46.2861 13.9844 3.16057e-20)
(46.3997 14.3744 1.94969e-19)
(46.5216 14.7648 2.95984e-19)
(46.6436 15.0898 -1.02076e-20)
(46.8112 15.3961 0)
(46.9714 15.667 -6.85363e-21)
(47.1533 15.9134 7.94462e-21)
(47.4466 16.1897 0)
(47.6135 16.3484 -9.64917e-21)
(47.6312 16.3773 -4.68513e-20)
(47.2485 16.2763 -3.99012e-19)
(45.5904 15.6877 -8.11862e-21)
(40.8693 13.9864 0)
(30.4078 10.182 0)
(12.4107 3.55865 1.07301e-19)
(1.27501 0.349218 -1.06258e-19)
(-1.57726 -0.0765056 2.39059e-19)
(40.7522 0.162342 1.46475e-19)
(43.5581 0.00380673 1.63357e-19)
(43.6876 0.481584 9.09871e-20)
(43.7719 0.506224 1.07796e-19)
(43.8623 0.88489 1.14852e-19)
(44.0211 1.04287 -1.3739e-19)
(44.2041 1.33199 0)
(44.3894 1.58401 0)
(44.5243 1.87295 1.12214e-19)
(44.7171 2.18491 3.59906e-21)
(44.9537 2.48805 -1.44862e-19)
(45.1704 2.83113 -1.03327e-20)
(45.3698 3.23089 -1.98894e-19)
(45.5412 3.60017 2.33369e-19)
(45.7451 4.01747 2.96885e-19)
(45.9284 4.47735 0)
(46.1099 4.95633 0)
(46.2772 5.4651 6.10894e-21)
(46.4213 5.99356 7.05873e-21)
(46.5479 6.53973 -3.02662e-19)
(46.6546 7.10028 9.35721e-21)
(46.7442 7.66946 0)
(46.8058 8.24817 0)
(46.8434 8.8297 -6.1167e-20)
(46.9093 9.44871 -2.97442e-19)
(46.9958 10.1195 8.69877e-20)
(46.9517 10.7238 0)
(46.8317 11.225 -2.15493e-19)
(46.7966 11.7601 0)
(46.8126 12.2886 -7.68553e-21)
(46.801 12.721 0)
(46.7726 13.1361 0)
(46.79 13.5256 9.76466e-20)
(46.8599 13.9308 1.13343e-19)
(46.8981 14.2959 0)
(46.9649 14.5999 0)
(47.0771 14.9143 1.02018e-20)
(47.1748 15.1915 0)
(47.3121 15.4424 6.84901e-21)
(47.5097 15.6907 -2.62391e-19)
(47.6766 15.9045 2.77397e-19)
(47.7137 15.9609 1.988e-20)
(47.4843 15.955 1.14733e-20)
(46.3413 15.6148 -4.45961e-19)
(42.9038 14.4244 -2.55886e-19)
(35.0257 11.6574 1.46093e-18)
(20.6614 6.52716 -6.53771e-19)
(4.78519 1.32986 -7.49656e-19)
(-1.07453 0.187245 6.19229e-19)
(-1.72292 -0.0285979 0)
(40.8517 0.0734782 -1.45316e-19)
(43.7732 -0.0340226 1.94305e-19)
(43.9126 0.370569 -8.93019e-20)
(44.0232 0.349463 1.28048e-19)
(44.1274 0.668104 -1.21829e-19)
(44.3038 0.804914 1.41404e-19)
(44.491 1.0599 1.1139e-20)
(44.7223 1.32275 -1.24021e-20)
(45.0007 1.59665 -9.6887e-20)
(45.2246 1.91001 -1.69951e-20)
(45.454 2.28986 1.54021e-19)
(45.6984 2.66658 4.05669e-19)
(45.959 3.04914 -2.65103e-19)
(46.2499 3.52281 -2.13528e-19)
(46.4828 4.00762 -9.80875e-19)
(46.7132 4.50754 4.59178e-20)
(46.9295 5.03833 -5.12258e-20)
(47.1344 5.59337 5.16829e-19)
(47.2887 6.16998 7.13386e-20)
(47.4228 6.76135 2.22608e-19)
(47.528 7.36767 0)
(47.6038 7.98388 0)
(47.6494 8.59783 0)
(47.6694 9.20238 0)
(47.6415 9.76573 2.95751e-19)
(47.5295 10.247 -7.61441e-19)
(47.4932 10.735 0)
(47.5399 11.3052 6.98363e-19)
(47.5303 11.8014 0)
(47.444 12.2322 0)
(47.3669 12.6986 -6.84757e-19)
(47.3453 13.1308 3.71363e-19)
(47.3219 13.5439 -8.36116e-19)
(47.269 13.8802 2.41991e-19)
(47.2999 14.1923 0)
(47.3677 14.5272 0)
(47.4132 14.7977 3.5534e-19)
(47.5122 15.0387 -1.21422e-18)
(47.6344 15.2692 0)
(47.7749 15.5215 -7.47939e-19)
(47.8193 15.6035 1.13163e-18)
(47.6471 15.6376 -1.3731e-18)
(46.8323 15.4495 7.79959e-19)
(44.2973 14.6255 -9.07069e-19)
(38.2406 12.5745 2.29037e-18)
(26.4858 8.52873 -2.00633e-18)
(8.8544 2.62415 1.29191e-18)
(0.611243 0.57931 -2.87992e-18)
(-2.07259 0.129838 3.39809e-18)
(-1.59404 0.0647832 -2.18918e-18)
(40.8224 0.0134918 -3.42187e-19)
(43.9792 -0.097506 2.63482e-20)
(44.122 0.291965 0)
(44.2465 0.234672 -2.34013e-19)
(44.3645 0.555315 -5.98039e-19)
(44.5617 0.660727 1.99807e-20)
(44.7693 0.898344 0)
(44.9862 1.13238 0)
(45.2061 1.38019 -3.36998e-20)
(45.4726 1.65927 3.75406e-20)
(45.7553 1.93126 -7.57615e-19)
(46.0456 2.28056 4.8817e-19)
(46.3212 2.68923 4.75809e-19)
(46.5753 3.05327 -6.19618e-19)
(46.8487 3.48744 6.53342e-19)
(47.0953 3.96731 1.03455e-19)
(47.3367 4.47512 -1.11187e-18)
(47.5492 5.0218 -1.67647e-18)
(47.7525 5.59129 0)
(47.9335 6.18646 7.77382e-19)
(48.0821 6.8038 8.9531e-19)
(48.2023 7.43036 0)
(48.2859 8.06739 -1.17294e-18)
(48.3377 8.70592 0)
(48.3736 9.35951 0)
(48.4536 10.0767 7.5909e-19)
(48.4163 10.7536 5.04644e-19)
(48.2474 11.2919 1.09936e-18)
(48.1031 11.8252 0)
(48.0181 12.365 0)
(47.9474 12.8041 3.25375e-19)
(47.842 13.196 3.98729e-19)
(47.7424 13.5205 1.37347e-18)
(47.7413 13.8629 3.43481e-21)
(47.7298 14.1945 5.76235e-21)
(47.7067 14.4363 -1.28269e-18)
(47.753 14.6746 -1.18112e-20)
(47.8029 14.9062 1.61277e-18)
(47.9136 15.1819 8.8869e-19)
(47.9586 15.2822 4.97044e-19)
(47.8142 15.3383 1.21389e-18)
(47.1928 15.2456 2.55523e-20)
(45.2797 14.6848 -1.56344e-18)
(40.395 13.0982 -8.93536e-19)
(30.3566 9.72296 -2.52091e-18)
(13.7735 4.23267 2.82206e-18)
(2.62707 1.11119 -1.25799e-18)
(-1.47415 0.415865 0)
(-2.38547 0.211788 0)
(-1.39142 0.138724 4.3043e-19)
(40.737 -0.019995 1.0496e-18)
(44.1092 -0.190403 4.26765e-19)
(44.2465 0.106879 -4.60226e-19)
(44.3634 0.0179171 1.65273e-20)
(44.51 0.277836 1.19199e-18)
(44.7352 0.349732 -2.13324e-20)
(44.9902 0.553589 0)
(45.265 0.741121 -9.87082e-19)
(45.5937 0.997135 -3.64154e-20)
(45.8903 1.28646 -2.46135e-21)
(46.2002 1.63011 1.62012e-18)
(46.5064 1.96761 -8.31529e-19)
(46.8569 2.34651 3.87768e-21)
(47.2231 2.82382 5.39353e-19)
(47.544 3.30945 0)
(47.8582 3.82868 0)
(48.1562 4.38789 8.59872e-19)
(48.4457 4.97918 1.3061e-18)
(48.7031 5.60643 0)
(48.908 6.26234 -7.74857e-19)
(49.063 6.93906 -8.92281e-19)
(49.1771 7.63008 -2.7379e-19)
(49.243 8.32716 1.67079e-19)
(49.2649 9.01908 1.13331e-18)
(49.2335 9.68043 3.96004e-19)
(49.0775 10.2451 4.49452e-19)
(48.9385 10.7661 -1.45594e-18)
(48.9047 11.3743 -1.06805e-18)
(48.8526 11.9302 1.31582e-18)
(48.7059 12.3763 -1.457e-18)
(48.5079 12.8182 0)
(48.3537 13.2159 0)
(48.2573 13.6155 2.87519e-20)
(48.113 13.9299 -1.05936e-18)
(48.018 14.1567 1.2073e-18)
(48.013 14.4154 2.01307e-18)
(47.9968 14.6424 -7.37868e-19)
(48.0812 14.896 -1.60161e-18)
(48.1232 14.9988 -1.79412e-18)
(47.9802 15.0524 -1.06888e-18)
(47.4759 15.0285 -1.92563e-20)
(45.9653 14.6547 1.37176e-18)
(41.9214 13.3978 0)
(33.0861 10.4907 8.85039e-19)
(17.8243 5.5186 9.92745e-19)
(4.80993 1.74438 1.10444e-18)
(-0.637522 0.708369 3.70841e-18)
(-2.34905 0.421936 -1.38089e-18)
(-2.3788 0.325456 0)
(-1.18516 0.177811 0)
(40.5805 -0.0265776 1.04877e-20)
(44.1482 -0.266095 -8.09039e-19)
(44.328 -0.0350675 4.7448e-19)
(44.4806 -0.142841 -1.09106e-18)
(44.6525 0.106166 -6.50051e-19)
(44.8787 0.132159 -1.19262e-21)
(45.1141 0.325478 2.6153e-20)
(45.4121 0.517479 9.19723e-19)
(45.6939 0.675946 7.2751e-20)
(46.0169 0.891356 9.16288e-20)
(46.3863 1.14789 -8.07386e-19)
(46.7747 1.4794 -1.21122e-19)
(47.1205 1.84545 -1.22038e-18)
(47.4757 2.20118 -1.4485e-18)
(47.8405 2.63895 2.1291e-19)
(48.1903 3.12974 -2.37486e-19)
(48.5288 3.66583 0)
(48.8247 4.25041 -1.39871e-18)
(49.0871 4.87264 0)
(49.335 5.5321 0)
(49.5506 6.22426 0)
(49.7242 6.93596 -6.06961e-19)
(49.8472 7.66428 1.9781e-18)
(49.9222 8.39639 -1.47854e-18)
(49.9418 9.13158 0)
(50.0012 9.92827 -4.96859e-19)
(49.9846 10.7323 -1.78662e-18)
(49.7841 11.3825 -2.60379e-18)
(49.5157 11.9556 -1.98744e-18)
(49.2658 12.5379 1.37278e-18)
(49.0734 13.0246 -1.66304e-18)
(48.8776 13.4434 9.21698e-19)
(48.6249 13.7297 2.07532e-18)
(48.4773 13.9757 0)
(48.3898 14.2561 1.2991e-18)
(48.271 14.4421 -2.69392e-18)
(48.2844 14.6353 -1.58767e-20)
(48.2868 14.7495 1.60465e-18)
(48.1242 14.7832 9.28073e-19)
(47.6979 14.799 0)
(46.455 14.5441 1.21604e-18)
(43.0993 13.5472 -1.39835e-18)
(35.1651 11.0114 3.13959e-18)
(20.8752 6.47714 0)
(6.85961 2.4282 -3.91046e-18)
(0.516534 1.11677 1.08544e-18)
(-1.9229 0.816404 -1.21424e-18)
(-2.65358 0.733543 -1.35484e-18)
(-2.28354 0.551974 3.02256e-18)
(-1.02334 0.233043 1.22668e-21)
(40.3385 -0.111377 -7.28148e-19)
(44.109 -0.373669 8.27026e-19)
(44.3059 -0.207161 -9.47391e-19)
(44.48 -0.354273 2.19032e-18)
(44.6768 -0.205571 -1.32084e-18)
(44.933 -0.203194 9.40849e-20)
(45.2414 -0.0816749 -9.4417e-19)
(45.5684 0.0299275 0)
(45.9415 0.242997 -1.25993e-18)
(46.3345 0.473949 1.59941e-18)
(46.6999 0.737553 7.40957e-21)
(47.0882 1.01636 -1.27362e-19)
(47.5537 1.37729 1.21629e-18)
(48.0116 1.82706 -8.5823e-20)
(48.4418 2.29294 1.59233e-18)
(48.8656 2.81365 2.54493e-19)
(49.2728 3.39246 0)
(49.6699 4.01676 1.39243e-18)
(50.0372 4.69522 3.53374e-18)
(50.3681 5.41737 0)
(50.6307 6.17856 0)
(50.8237 6.97185 0)