/*--------------------------------*- C++ -*----------------------------------*\
| =========                 |                                                 |
| \\      /  F ield         | OpenFOAM: The Open Source CFD Toolbox           |
|  \\    /   O peration     | Version:  v1912                                 |
|   \\  /    A nd           | Website:  www.openfoam.com                      |
|    \\/     M anipulation  |                                                 |
\*---------------------------------------------------------------------------*/
FoamFile
{
    version     2.0;
    format      ascii;
    class       surfaceScalarField;
    location    "0.02";
    object      phi;
}
// * * * * * * * * * * * * * * * * * * * * * * * * * * * * * * * * * * * * * //

dimensions      [0 3 -1 0 0 0 0];
oriented        oriented;


internalField   nonuniform List<scalar> 
13060
(
0.0157851
0.974983
-0.990768
0.0173749
0.945163
-0.946753
0.022361
0.890115
-0.895101
0.0214501
0.854462
-0.853551
0.022507
0.810048
-0.811105
0.0203154
0.773844
-0.771653
0.0168016
0.73919
-0.735677
0.0136706
0.706238
-0.703107
0.0122794
0.673633
-0.672242
0.0128032
0.640619
-0.641143
0.0141309
0.608796
-0.610124
0.0156877
0.578503
-0.58006
0.017238
0.549515
-0.551065
0.0185997
0.521847
-0.523209
0.0196754
0.495663
-0.496739
0.0205194
0.470851
-0.471695
0.021208
0.447255
-0.447944
0.0217981
0.424777
-0.425367
0.0223112
0.403426
-0.403939
0.0227258
0.383243
-0.383657
0.023018
0.364205
-0.364497
0.0231663
0.34623
-0.346378
0.0231639
0.32923
-0.329228
0.0230233
0.313149
-0.313008
0.0227617
0.297916
-0.297654
0.0224092
0.283528
-0.283176
0.021965
0.269952
-0.269508
0.0214252
0.257146
-0.256606
0.0208039
0.245041
-0.244419
0.020106
0.233635
-0.232937
0.0193278
0.222911
-0.222133
0.0184606
0.212806
-0.211939
0.0174951
0.203299
-0.202334
0.0164526
0.194344
-0.193301
0.0153236
0.185939
-0.18481
0.0141148
0.178053
-0.176844
0.0128173
0.170618
-0.169321
0.0114846
0.163602
-0.16227
0.0101086
0.157007
-0.155631
0.00867999
0.150771
-0.149343
0.00722971
0.14493
-0.14348
0.00589635
0.139327
-0.137994
0.00473128
0.134026
-0.132861
0.00358789
0.129139
-0.127995
0.00237648
0.124303
-0.123091
0.00128162
0.119832
-0.118738
0.000208152
0.115202
-0.114128
-0.00106035
0.111808
-0.110539
-0.00143162
0.103581
-0.10321
0.0744089
-0.0758406
0.0318089
0.943174
0.0214079
0.955564
0.0239048
0.887618
0.0185602
0.859807
0.0166835
0.811925
0.0106571
0.779871
0.00820805
0.741639
0.0069375
0.707509
0.00753881
0.673032
0.00903068
0.639127
0.0105957
0.607231
0.0122374
0.576862
0.0138157
0.547936
0.015151
0.520512
0.016174
0.49464
0.016914
0.470111
0.0174645
0.446704
0.017883
0.424359
0.018203
0.403106
0.0184357
0.38301
0.0185806
0.36406
0.0186224
0.346188
0.018534
0.329318
0.0183098
0.313373
0.0179577
0.298268
0.0175124
0.283973
0.0169837
0.270481
0.0163663
0.257764
0.015635
0.245772
0.0148098
0.23446
0.0139181
0.223803
0.0129787
0.213746
0.0120047
0.204273
0.0109947
0.195354
0.00997909
0.186954
0.00896891
0.179063
0.00795528
0.171632
0.0069431
0.164615
0.00595502
0.157995
0.00501873
0.151708
0.00408233
0.145867
0.00307975
0.14033
0.00198984
0.135116
0.000940344
0.130188
8.66852e-06
0.125234
-0.000906026
0.120747
-0.00180398
0.1161
-0.00230208
0.112306
-0.00206925
0.103348
0.0723397
0.0291286
0.914046
0.0149875
0.969705
0.0179922
0.884613
0.00929398
0.868505
0.0076807
0.813538
0.00300601
0.784545
0.00328353
0.741362
0.00324205
0.70755
0.00497509
0.671299
0.0066887
0.637413
0.00795228
0.605967
0.00930112
0.575513
0.0105314
0.546706
0.0115193
0.519524
0.0123295
0.49383
0.0130068
0.469433
0.013574
0.446137
0.0139959
0.423937
0.0142469
0.402855
0.0143615
0.382895
0.0143795
0.364042
0.0143223
0.346245
0.0141674
0.329473
0.0138972
0.313643
0.013488
0.298677
0.0129707
0.284491
0.0123909
0.271061
0.0117853
0.258369
0.0111413
0.246416
0.0104436
0.235158
0.00968276
0.224564
0.0088541
0.214574
0.00798459
0.205143
0.00706484
0.196273
0.00609257
0.187927
0.00507658
0.180079
0.00404896
0.17266
0.00302527
0.165638
0.00197583
0.159045
0.000920229
0.152763
-2.09625e-05
0.146808
-0.000838773
0.141148
-0.00144694
0.135724
-0.0019922
0.130733
-0.00257475
0.125817
-0.00303974
0.121212
-0.0034678
0.116528
-0.00333273
0.112171
-0.0025075
0.102523
0.0698322
5.19143e-05
0.913994
0.000846469
0.968911
0.000943112
0.884516
-0.00379063
0.873238
-0.00202037
0.811768
-0.00233845
0.784863
-0.000122129
0.739146
0.00107862
0.70635
0.00341367
0.668964
0.00454821
0.636279
0.00572623
0.604789
0.00705158
0.574187
0.00794915
0.545808
0.0086093
0.518864
0.00916387
0.493275
0.00964717
0.46895
0.0100403
0.445744
0.0102896
0.423688
0.010364
0.402781
0.0102869
0.382973
0.0101242
0.364205
0.009914
0.346456
0.00967995
0.329707
0.00939562
0.313927
0.00899909
0.299074
0.00844303
0.285047
0.00773568
0.271768
0.00693111
0.259174
0.00607861
0.247268
0.00520574
0.236031
0.0043279
0.225442
0.00343973
0.215462
0.0025732
0.206009
0.00173434
0.197112
0.000938859
0.188722
0.000193828
0.180824
-0.000538839
0.173392
-0.00124837
0.166348
-0.00188064
0.159677
-0.00242915
0.153312
-0.00297674
0.147355
-0.00358588
0.141757
-0.00418924
0.136328
-0.00463311
0.131177
-0.00489964
0.126084
-0.00499876
0.121311
-0.00498364
0.116512
-0.00442091
0.111608
-0.00306711
0.101169
0.0667651
-0.0197956
0.933789
-0.0114572
0.960572
-0.00780795
0.880867
-0.00775841
0.873189
-0.00468072
0.80869
-0.00427634
0.784459
-0.00156661
0.736436
-0.000661538
0.705445
0.00122375
0.667079
0.0017042
0.635798
0.00311585
0.603378
0.00399593
0.573307
0.00465242
0.545152
0.00534647
0.51817
0.00596247
0.492659
0.00650628
0.468406
0.00689428
0.445356
0.00706424
0.423518
0.00699955
0.402846
0.00672946
0.383243
0.00630763
0.364626
0.00580744
0.346956
0.00531147
0.330203
0.00486149
0.314377
0.00445751
0.299477
0.00402623
0.285478
0.00351815
0.272276
0.00290973
0.259782
0.00222786
0.24795
0.001494
0.236765
0.000725254
0.226211
-4.4422e-05
0.216232
-0.000876548
0.206841
-0.00172934
0.197965
-0.00259272
0.189585
-0.00343271
0.181664
-0.0042318
0.174191
-0.00498864
0.167105
-0.00572849
0.160417
-0.00643263
0.154016
-0.0069467
0.147869
-0.00718178
0.141992
-0.00720812
0.136354
-0.00713195
0.131101
-0.00698825
0.12594
-0.00667731
0.121
-0.00629418
0.116129
-0.00541359
0.110727
-0.00362712
0.0993829
0.063138
-0.0268151
0.960604
-0.0110838
0.944841
-0.011098
0.880881
-0.00697596
0.869067
-0.0036987
0.805413
-0.0029375
0.783698
-0.00102107
0.734519
-0.000384631
0.704808
0.000250239
0.666444
0.000519765
0.635529
0.00118885
0.602709
0.00104329
0.573453
0.00138719
0.544808
0.00173744
0.51782
0.00211497
0.492282
0.00257573
0.467945
0.00297468
0.444957
0.00322391
0.423269
0.00327795
0.402791
0.00311742
0.383403
0.00274812
0.364996
0.00220457
0.347499
0.00154313
0.330865
0.00083167
0.315089
0.000119361
0.30019
-0.000589912
0.286187
-0.00133116
0.273018
-0.00210422
0.260555
-0.00289373
0.24874
-0.00368526
0.237556
-0.00448924
0.227014
-0.0053187
0.217062
-0.00610751
0.20763
-0.00683117
0.198689
-0.00747457
0.190229
-0.00804528
0.182234
-0.00851636
0.174662
-0.00887841
0.167467
-0.00908784
0.160626
-0.00918267
0.154111
-0.00927602
0.147963
-0.00943459
0.14215
-0.00951578
0.136435
-0.00936999
0.130955
-0.00900192
0.125572
-0.00845753
0.120456
-0.00782252
0.115494
-0.00657581
0.109481
-0.00420968
0.0970167
0.0589283
-0.0199227
0.980527
-0.00216386
0.927082
-0.00971052
0.888428
-0.00397259
0.863329
-0.00349644
0.804937
-0.00117243
0.781374
-0.00045043
0.733797
0.000308328
0.704049
0.000486086
0.666266
0.000667216
0.635348
0.000531825
0.602844
0.000109586
0.573875
-0.000199888
0.545117
-0.000575747
0.518196
-0.000790999
0.492497
-0.000917724
0.468072
-0.000975966
0.445015
-0.00101448
0.423307
-0.00108371
0.402861
-0.0012237
0.383543
-0.00146454
0.365237
-0.0018226
0.347857
-0.00229365
0.331336
-0.00285304
0.315648
-0.00347371
0.30081
-0.00413666
0.28685
-0.00484142
0.273722
-0.00559827
0.261312
-0.00636716
0.249509
-0.00708823
0.238277
-0.00773637
0.227663
-0.0083578
0.217683
-0.00899953
0.208272
-0.00967222
0.199361
-0.0103283
0.190885
-0.0109346
0.182841
-0.0114709
0.175199
-0.0119476
0.167943
-0.0123598
0.161039
-0.0126567
0.154408
-0.0126777
0.147984
-0.012387
0.14186
-0.0119353
0.135984
-0.0113985
0.130419
-0.0108001
0.124973
-0.0100479
0.119704
-0.00912411
0.114571
-0.00756667
0.107923
-0.00472219
0.0941723
0.0542061
-0.0120406
0.992568
0.000120169
0.914921
-0.0104198
0.898968
-0.00292012
0.855829
-0.00518336
0.8072
-0.00249317
0.778684
-0.00186951
0.733174
-0.00100587
0.703186
-0.000620622
0.665881
0.000181323
0.634546
-0.000255291
0.603281
-0.000230955
0.573851
-0.000798668
0.545685
-0.00142479
0.518822
-0.00209082
0.493163
-0.0027939
0.468775
-0.00346352
0.445685
-0.00405379
0.423897
-0.00455609
0.403363
-0.00502045
0.384007
-0.00549774
0.365714
-0.00601899
0.348379
-0.0065947
0.331912
-0.00720641
0.31626
-0.0078322
0.301436
-0.00845938
0.287477
-0.00912153
0.274384
-0.0098776
0.262068
-0.0107422
0.250373
-0.0116478
0.239183
-0.0124791
0.228494
-0.0131719
0.218376
-0.0137287
0.208829
-0.0141765
0.199809
-0.0145467
0.191255
-0.0148325
0.183127
-0.0150097
0.175376
-0.0150439
0.167977
-0.0149123
0.160907
-0.0146735
0.154169
-0.0144518
0.147762
-0.0142414
0.141649
-0.0139025
0.135645
-0.0133533
0.129869
-0.0126206
0.124241
-0.0117269
0.11881
-0.0105455
0.113389
-0.00864902
0.106027
-0.00520784
0.0907311
0.0489982
-0.00598848
0.998556
-0.00131306
0.910246
-0.0102255
0.90788
-0.00350531
0.849109
-0.00771728
0.811412
-0.00499233
0.775959
-0.00491454
0.733096
-0.00411251
0.702384
-0.00307483
0.664843
-0.00272012
0.634191
-0.00234936
0.60291
-0.00216565
0.573667
-0.00237385
0.545893
-0.00271993
0.519168
-0.00337159
0.493814
-0.00419645
0.4696
-0.00511248
0.446601
-0.00600577
0.424791
-0.00678932
0.404147
-0.00747143
0.38469
-0.00812939
0.366372
-0.00883009
0.349079
-0.00959221
0.332674
-0.0103755
0.317043
-0.0111063
0.302167
-0.0117264
0.288098
-0.0122222
0.27488
-0.0126569
0.262503
-0.0131458
0.250862
-0.0137388
0.239776
-0.0143962
0.229151
-0.0150509
0.21903
-0.0156655
0.209443
-0.0161981
0.200342
-0.0166381
0.191695
-0.0169903
0.183479
-0.0172693
0.175655
-0.0174767
0.168185
-0.0176113
0.161042
-0.0175865
0.154144
-0.0172575
0.147433
-0.016645
0.141037
-0.0159078
0.134908
-0.0150916
0.129053
-0.0142311
0.12338
-0.0132948
0.117874
-0.011856
0.11195
-0.00964979
0.103821
-0.00568068
0.086762
0.0433176
-0.00260445
1.00116
-0.00315103
0.910793
-0.00868069
0.91341
-0.00384856
0.844277
-0.00820798
0.815771
-0.00551889
0.77327
-0.00676503
0.734342
-0.00596694
0.701586
-0.00548103
0.664357
-0.00537723
0.634087
-0.00481027
0.602343
-0.00472607
0.573583
-0.00463149
0.545799
-0.00483122
0.519368
-0.00529637
0.49428
-0.00602215
0.470326
-0.00694526
0.447524
-0.00793071
0.425776
-0.00885806
0.405074
-0.00964566
0.385477
-0.0103276
0.367054
-0.0110199
0.349772
-0.0118331
0.333487
-0.0128094
0.31802
-0.0138865
0.303244
-0.0149416
0.289153
-0.0158677
0.275806
-0.0166237
0.263259
-0.017255
0.251493
-0.0178414
0.240362
-0.0184019
0.229712
-0.0189126
0.219541
-0.019366
0.209897
-0.0197452
0.200721
-0.020006
0.191956
-0.0201136
0.183586
-0.0200613
0.175603
-0.0198348
0.167958
-0.0194445
0.160652
-0.0189928
0.153692
-0.0185958
0.147036
-0.0181799
0.140621
-0.0176107
0.134338
-0.0168467
0.128289
-0.0158999
0.122433
-0.0148605
0.116834
-0.013202
0.110292
-0.0106613
0.10128
-0.00609979
0.0822005
0.0372178
-0.00088608
1.00205
-0.00425244
0.914159
-0.00723511
0.916393
-0.00473005
0.841772
-0.0081252
0.819166
-0.00580101
0.770945
-0.00761974
0.736161
-0.00668829
0.700654
-0.00692746
0.664596
-0.0068899
0.63405
-0.00649708
0.60195
-0.00657372
0.57366
-0.00642527
0.54565
-0.00659968
0.519542
-0.0069523
0.494632
-0.00757661
0.47095
-0.00845546
0.448403
-0.00950498
0.426826
-0.0106059
0.406175
-0.0116054
0.386477
-0.0123981
0.367846
-0.012999
0.350373
-0.0135336
0.334021
-0.0141578
0.318644
-0.0149467
0.304033
-0.01585
0.290056
-0.0167559
0.276712
-0.0175761
0.264079
-0.0182933
0.252211
-0.0189319
0.241001
-0.0195023
0.230282
-0.0199871
0.220026
-0.0203961
0.210306
-0.0207793
0.201104
-0.021141
0.192318
-0.0214436
0.183889
-0.0216594
0.175818
-0.0217799
0.168079
-0.0217817
0.160653
-0.0215594
0.15347
-0.0210323
0.146509
-0.0202834
0.139872
-0.0194482
0.133503
-0.018536
0.127377
-0.0175563
0.121454
-0.0164148
0.115693
-0.0146853
0.108562
-0.0118131
0.0984076
-0.00654629
0.0769337
0.0306715
-0.000148202
1.00219
-0.00450068
0.918511
-0.00593151
0.917824
-0.00544233
0.841283
-0.00781442
0.821539
-0.00624086
0.769372
-0.00791562
0.737836
-0.00704066
0.699779
-0.00777253
0.665328
-0.00771628
0.633993
-0.00767932
0.601913
-0.00782503
0.573805
-0.00772574
0.545551
-0.0078821
0.519698
-0.00810388
0.494854
-0.00853785
0.471384
-0.00922641
0.449091
-0.0101892
0.427788
-0.0113872
0.407373
-0.0127016
0.387791
-0.0139494
0.369094
-0.0149847
0.351408
-0.0157951
0.334832
-0.0164962
0.319345
-0.0172338
0.304771
-0.0180781
0.2909
-0.0189897
0.277624
-0.0198925
0.264982
-0.0207482
0.253066
-0.0215753
0.241828
-0.0223593
0.231066
-0.0230089
0.220676
-0.0234459
0.210743
-0.0236949
0.201353
-0.0238137
0.192436
-0.0238222
0.183897
-0.0237001
0.175696
-0.0234212
0.1678
-0.0230018
0.160234
-0.0225553
0.153023
-0.0221428
0.146097
-0.0216633
0.139392
-0.0210268
0.132866
-0.0202405
0.126591
-0.0193793
0.120592
-0.0180686
0.114382
-0.0162128
0.106706
-0.0129295
0.0951244
-0.00703926
0.0710434
0.0236322
0.00025882
1.00194
-0.0041419
0.922912
-0.00471392
0.918396
-0.00544472
0.842014
-0.00699119
0.823085
-0.00622201
0.768603
-0.00768579
0.739299
-0.00711186
0.699205
-0.00803027
0.666247
-0.00799656
0.63396
-0.00835597
0.602272
-0.00858814
0.574037
-0.00867256
0.545635
-0.0088953
0.519921
-0.00904622
0.495005
-0.00930316
0.471641
-0.0097012
0.449489
-0.0103309
0.428418
-0.011254
0.408296
-0.0124555
0.388993
-0.0138082
0.370447
-0.0151088
0.352709
-0.0161977
0.335921
-0.0170531
0.3202
-0.0177806
0.305498
-0.0184878
0.291607
-0.0192019
0.278338
-0.0198899
0.26567
-0.0205275
0.253704
-0.0211638
0.242464
-0.0218806
0.231783
-0.0226552
0.22145
-0.0233667
0.211454
-0.0239353
0.201922
-0.0243674
0.192869
-0.0247
0.18423
-0.0249573
0.175953
-0.0251448
0.167987
-0.0251958
0.160285
-0.0249828
0.15281
-0.0244909
0.145605
-0.0238125
0.138714
-0.0230253
0.132079
-0.0221448
0.12571
-0.0212962
0.119744
-0.0198608
0.112947
-0.0177739
0.10462
-0.0138779
0.0912284
-0.0072558
0.0644212
0.0163764
0.000444415
1.00149
-0.003391
0.926748
-0.00356592
0.91857
-0.00486839
0.843316
-0.00584322
0.82406
-0.00568765
0.768447
-0.00690017
0.740512
-0.0066021
0.698907
-0.00758173
0.667226
-0.00767065
0.634049
-0.00827932
0.602881
-0.00862857
0.574387
-0.00896837
0.545975
-0.00934049
0.520293
-0.00960139
0.495266
-0.00989453
0.471934
-0.0102031
0.449798
-0.0106303
0.428845
-0.0112904
0.408956
-0.0122641
0.389966
-0.0135507
0.371734
-0.0150244
0.354182
-0.0164811
0.337377
-0.017764
0.321483
-0.0188766
0.306611
-0.0199305
0.292661
-0.0209793
0.279387
-0.0219574
0.266648
-0.02279
0.254537
-0.0234761
0.243151
-0.0241131
0.23242
-0.0247753
0.222113
-0.0254237
0.212103
-0.0259711
0.202469
-0.0263612
0.193259
-0.0265573
0.184426
-0.0265477
0.175944
-0.0263635
0.167803
-0.0261
0.160022
-0.0258648
0.152575
-0.0256176
0.145358
-0.0252659
0.138362
-0.0247904
0.131604
-0.0241988
0.125119
-0.0233508
0.118896
-0.0218465
0.111442
-0.0193297
0.102103
-0.0144594
0.0863581
-0.00645789
0.0564198
0.00991853
0.00052801
1.00096
-0.00217265
0.929448
-0.00268235
0.91908
-0.00398816
0.844622
-0.00464105
0.824713
-0.00484001
0.768646
-0.00580894
0.741481
-0.0057137
0.698812
-0.00666217
0.668175
-0.0068261
0.634213
-0.00753905
0.603594
-0.00796878
0.574816
-0.0084779
0.546484
-0.00897335
0.520789
-0.00938056
0.495673
-0.00979246
0.472346
-0.010139
0.450145
-0.01049
0.429196
-0.0109341
0.4094
-0.011575
0.390607
-0.0125001
0.372659
-0.0137037
0.355386
-0.0150523
0.338726
-0.0163524
0.322783
-0.0174855
0.307744
-0.0185059
0.293682
-0.0195488
0.28043
-0.0206443
0.267743
-0.0216835
0.255576
-0.022568
0.244035
-0.0233321
0.233184
-0.0240823
0.222863
-0.024854
0.212874
-0.0256121
0.203227
-0.0263519
0.193998
-0.0270668
0.185141
-0.0277085
0.176585
-0.0282129
0.168308
-0.0284682
0.160277
-0.0284129
0.15252
-0.0281496
0.145094
-0.0277364
0.137949
-0.0271599
0.131027
-0.0266423
0.124601
-0.0256024
0.117856
-0.0239526
0.109793
-0.0207554
0.0989055
-0.0146636
0.0802663
-0.00496999
0.0467261
0.00494854
0.000539964
1.00042
-0.0013334
0.931322
-0.00184609
0.919593
-0.00252685
0.845303
-0.00357353
0.825759
-0.0036534
0.768726
-0.00459487
0.742422
-0.00463403
0.698851
-0.00551158
0.669052
-0.00570379
0.634405
-0.00646754
0.604358
-0.0069034
0.575252
-0.00752763
0.547109
-0.00811296
0.521374
-0.00866159
0.496222
-0.00923285
0.472917
-0.00973812
0.45065
-0.0102241
0.429682
-0.0107294
0.409905
-0.0113398
0.391217
-0.0121718
0.373491
-0.0133104
0.356524
-0.0147255
0.340141
-0.0162573
0.324315
-0.0177126
0.309199
-0.0190095
0.294979
-0.0202346
0.281655
-0.0214952
0.269004
-0.0227941
0.256875
-0.0240252
0.245266
-0.0250991
0.234258
-0.0260318
0.223795
-0.0268667
0.213709
-0.0275842
0.203945
-0.0281636
0.194578
-0.028617
0.185595
-0.0289484
0.176917
-0.029169
0.168528
-0.0293789
0.160487
-0.0296035
0.152744
-0.0297016
0.145192
-0.0296358
0.137883
-0.0295108
0.130902
-0.0292294
0.124319
-0.0281574
0.116784
-0.0262695
0.107905
-0.0223507
0.0949867
-0.0146918
0.0726074
-0.00356378
0.0355981
0.00138476
0.000508391
0.999915
-0.000622577
0.932453
-0.000920644
0.919891
-0.00125637
0.845638
-0.00241045
0.826914
-0.00209073
0.768406
-0.00344647
0.743778
-0.00328152
0.698686
-0.00423813
0.670009
-0.00438212
0.634549
-0.00515087
0.605127
-0.00554455
0.575646
-0.00619864
0.547763
-0.00676044
0.521936
-0.0073574
0.496819
-0.00796472
0.473525
-0.00852964
0.451215
-0.00906887
0.430221
-0.0095671
0.410404
-0.0100642
0.391715
-0.0106543
0.374081
-0.0114661
0.357336
-0.0125882
0.341263
-0.0139758
0.325703
-0.0154455
0.310669
-0.0168228
0.296356
-0.0180879
0.28292
-0.0193416
0.270258
-0.0206512
0.258184
-0.021997
0.246612
-0.0233425
0.235604
-0.0246751
0.225128
-0.0259638
0.214998
-0.0271724
0.205154
-0.0283112
0.195717
-0.0294079
0.186691
-0.0304636
0.177972
-0.0314013
0.169466
-0.0320415
0.161127
-0.032376
0.153079
-0.0325705
0.145387
-0.0326302
0.137943
-0.03263
0.130902
-0.0321708
0.12386
-0.0310909
0.115704
-0.0287513
0.105565
-0.0238293
0.0900648
-0.0150598
0.0638378
-0.0026557
0.023194
-0.00127094
0.00050573
0.99941
0.000129538
0.932829
-9.71562e-05
0.920118
-0.000322191
0.845863
-0.00127567
0.827867
-0.0010206
0.768151
-0.00233712
0.745095
-0.00189111
0.69824
-0.00311089
0.671229
-0.00316619
0.634604
-0.00399385
0.605954
-0.00437068
0.576023
-0.00504583
0.548438
-0.00561736
0.522507
-0.00625858
0.49746
-0.00690463
0.474171
-0.00756173
0.451872
-0.00823757
0.430897
-0.0089059
0.411072
-0.00957175
0.39238
-0.010271
0.37478
-0.0110984
0.358164
-0.0121824
0.342347
-0.0135947
0.327115
-0.0152523
0.312326
-0.0169451
0.298049
-0.0185299
0.284504
-0.020037
0.271765
-0.0215519
0.259699
-0.0230795
0.248139
-0.0245701
0.237094
-0.026041
0.226599
-0.0275104
0.216467
-0.0288714
0.206514
-0.0300159
0.196861
-0.0309542
0.18763
-0.031732
0.17875
-0.0324476
0.170182
-0.0332693
0.161949
-0.0341243
0.153934
-0.0347981
0.146061
-0.0353316
0.138476
-0.0358558
0.131426
-0.0355912
0.123596
-0.0345006
0.114614
-0.0315469
0.102612
-0.0251074
0.0836253
-0.0136283
0.0523587
-0.00199715
0.0115629
-0.00326809
0.000415582
0.998994
0.00111071
0.932134
0.000378857
0.920849
0.000672954
0.845569
-0.000269917
0.82881
-9.41702e-05
0.767975
-0.00115975
0.74616
-0.000848486
0.697929
-0.00200119
0.672381
-0.00184403
0.634447
-0.00274371
0.606854
-0.00303711
0.576316
-0.00369837
0.549099
-0.00421364
0.523023
-0.00481958
0.498066
-0.00541222
0.474763
-0.00602639
0.452486
-0.00664208
0.431513
-0.00724028
0.41167
-0.00781713
0.392957
-0.00838658
0.37535
-0.00901226
0.358789
-0.00981574
0.343151
-0.0109278
0.328227
-0.0123969
0.313796
-0.0141055
0.299757
-0.0158475
0.286247
-0.0175181
0.273435
-0.0191656
0.261347
-0.0208639
0.249838
-0.0226088
0.238839
-0.0243842
0.228374
-0.0262385
0.218321
-0.0281877
0.208464
-0.0301375
0.198811
-0.0320045
0.189497
-0.0337516
0.180497
-0.0352619
0.171692
-0.0363881
0.163075
-0.0372888
0.154835
-0.0381824
0.146954
-0.0390658
0.13936
-0.0394494
0.13181
-0.0391167
0.123263
-0.0378255
0.113322
-0.0339704
0.0987564
-0.0251975
0.0748524
-0.0103798
0.037541
-0.00168062
0.00286367
-0.00494871
4.4544e-05
0.998949
0.00133128
0.930847
0.000352719
0.921828
0.0010203
0.844902
-3.8226e-05
0.829868
0.000477727
0.767459
-0.000721931
0.74736
-0.000420181
0.697627
-0.0015091
0.67347
-0.00140108
0.634339
-0.00233353
0.607786
-0.00246118
0.576444
-0.00312421
0.549762
-0.00358108
0.52348
-0.00414484
0.49863
-0.00473115
0.47535
-0.00538126
0.453136
-0.00608628
0.432218
-0.00683011
0.412414
-0.00758428
0.393711
-0.00832179
0.376087
-0.00905806
0.359525
-0.009878
0.343971
-0.0109156
0.329265
-0.0122906
0.315171
-0.0140152
0.301482
-0.0159562
0.288187
-0.0179497
0.275429
-0.0199161
0.263313
-0.0218658
0.251787
-0.0238182
0.240792
-0.0257694
0.230326
-0.0277189
0.220271
-0.0296541
0.210399
-0.0315072
0.200664
-0.0332295
0.191219
-0.0348109
0.182079
-0.0363505
0.173232
-0.0379776
0.164702
-0.0395242
0.156381
-0.0408608
0.148291
-0.0422385
0.140738
-0.043008
0.132579
-0.0430202
0.123275
-0.0409858
0.111288
-0.0351144
0.092885
-0.0235194
0.0632573
-0.00669233
0.0207139
-0.000873932
-0.00295473
-0.00582265
-0.00022652
0.999176
0.00188036
0.92874
0.000577544
0.923131
0.00182729
0.843652
0.00041269
0.831283
0.00118401
0.766688
-2.60099e-05
0.74857
1.76533e-05
0.697583
-0.000846332
0.674334
-0.000910527
0.634403
-0.00168611
0.608562
-0.00185892
0.576617
-0.00252947
0.550433
-0.00285819
0.523808
-0.00331909
0.49909
-0.00374347
0.475774
-0.00419622
0.453589
-0.00468338
0.432705
-0.00521943
0.41295
-0.00580797
0.3943
-0.00643245
0.376712
-0.00707732
0.36017
-0.0077669
0.34466
-0.00859636
0.330094
-0.00970836
0.316283
-0.0111928
0.302966
-0.013002
0.289997
-0.0150116
0.277438
-0.0171312
0.265433
-0.0193405
0.253997
-0.0216278
0.243079
-0.0239966
0.232694
-0.0264833
0.222758
-0.0291218
0.213037
-0.0318448
0.203387
-0.034549
0.193923
-0.0371524
0.184682
-0.0394399
0.175519
-0.041263
0.166525
-0.042928
0.158046
-0.0447713
0.150134
-0.0463445
0.142311
-0.0470448
0.13328
-0.0466494
0.12288
-0.0434107
0.108049
-0.0347282
0.0842025
-0.0186272
0.0471563
-0.00393499
0.0060217
-4.05543e-05
-0.00684916
-0.0058632
-0.0015594
1.00074
0.000853646
0.926327
-0.000716907
0.924701
0.000797213
0.842138
-0.000569945
0.83265
0.0001224
0.765996
-0.000942095
0.749634
-0.000608899
0.69725
-0.00160014
0.675325
-0.00152561
0.634329
-0.00226145
0.609298
-0.00237128
0.576726
-0.00297095
0.551032
-0.00325637
0.524094
-0.00376291
0.499597
-0.00420883
0.47622
-0.00470492
0.454085
-0.00522452
0.433225
-0.00577774
0.413503
-0.00637321
0.394895
-0.00701706
0.377356
-0.00770784
0.360861
-0.0084451
0.345397
-0.00926744
0.330917
-0.0102953
0.31731
-0.0116817
0.304353
-0.0134744
0.291789
-0.0155607
0.279525
-0.0177963
0.267668
-0.0201273
0.256328
-0.0225618
0.245513
-0.0250845
0.235217
-0.0276502
0.225323
-0.0302448
0.215632
-0.0328518
0.205994
-0.0354074
0.196479
-0.0379148
0.18719
-0.0404814
0.178086
-0.0431165
0.16916
-0.0455062
0.160436
-0.0475972
0.152225
-0.0491775
0.143891
-0.0502878
0.13439
-0.0495242
0.122116
-0.0443624
0.102888
-0.0323685
0.0722086
-0.012102
0.0268899
-0.00251314
-0.00356712
0.000230488
-0.00959279
-0.00563271
-0.00144788
1.00218
0.00199965
0.922879
-9.1727e-05
0.926793
0.00154935
0.840497
-0.000185536
0.834385
-1.62363e-05
0.765826
-0.00103585
0.750654
-0.00110258
0.697317
-0.00178149
0.676004
-0.00206031
0.634607
-0.00266402
0.609902
-0.00288204
0.576944
-0.0033083
0.551459
-0.00349196
0.524277
-0.00378458
0.49989
-0.00401002
0.476446
-0.00428431
0.454359
-0.00458775
0.433528
-0.00493367
0.413849
-0.00532415
0.395286
-0.00576702
0.377798
-0.00626879
0.361363
-0.00683047
0.345959
-0.00746336
0.33155
-0.00822691
0.318074
-0.00926506
0.305391
-0.0107354
0.29326
-0.0126793
0.281469
-0.0149782
0.269967
-0.0174855
0.258835
-0.0201543
0.248182
-0.0230538
0.238117
-0.0262466
0.228516
-0.0297036
0.219089
-0.0333457
0.209636
-0.0370278
0.200161
-0.040574
0.190736
-0.0437487
0.18126
-0.0463781
0.171789
-0.0487715
0.162829
-0.0511577
0.154611
-0.0528175
0.145551
-0.053425
0.134998
-0.0514084
0.1201
-0.0435262
0.0950053
-0.0260941
0.0547765
-0.0070937
0.00788941
-0.00145578
-0.00920504
0.000141088
-0.0111897
-0.00549163
-0.00378599
1.00597
-0.000360637
0.919454
-0.0030775
0.92951
-0.000766774
0.838186
-0.00295302
0.836571
-0.00180359
0.764677
-0.00308428
0.751935
-0.00283735
0.69707
-0.00379231
0.676959
-0.00391932
0.634734
-0.00449042
0.610473
-0.00479788
0.577252
-0.00524416
0.551905
-0.0055463
0.524579
-0.00590884
0.500252
-0.00618164
0.476718
-0.00645663
0.454634
-0.00672972
0.433801
-0.00703333
0.414153
-0.00738526
0.395638
-0.00779634
0.378209
-0.00827087
0.361837
-0.00881256
0.346501
-0.0094375
0.332174
-0.010179
0.318815
-0.0111115
0.306323
-0.0123605
0.294509
-0.0140465
0.283155
-0.0161866
0.272107
-0.0186704
0.261319
-0.0213507
0.250862
-0.0241786
0.240944
-0.0272111
0.231549
-0.0304769
0.222355
-0.0339432
0.213102
-0.0375728
0.20379
-0.0413001
0.194463
-0.0451131
0.185073
-0.0489303
0.175607
-0.0523132
0.166212
-0.0545608
0.156859
-0.0558034
0.146793
-0.0557296
0.134924
-0.0517886
0.116159
-0.0403692
0.0835858
-0.0184324
0.0328397
-0.00533229
-0.00521067
-0.0014147
-0.0131226
-0.000346381
-0.012258
-0.00583801
-0.00339821
1.00937
0.00123745
0.914818
-0.00302951
0.933777
-0.00102991
0.836186
-0.00303627
0.838578
-0.00274994
0.764391
-0.00402523
0.75321
-0.00424778
0.697293
-0.00483184
0.677543
-0.00535437
0.635257
-0.00570444
0.610823
-0.00609341
0.577641
-0.00630095
0.552112
-0.00654324
0.524822
-0.00673982
0.500449
-0.0068959
0.476874
-0.00703018
0.454768
-0.00712718
0.433898
-0.00721069
0.414236
-0.00731174
0.395739
-0.00746157
0.378359
-0.00767306
0.362049
-0.00794403
0.346772
-0.00827604
0.332506
-0.00870745
0.319247
-0.00933032
0.306946
-0.0102839
0.295462
-0.0116957
0.284567
-0.013633
0.274045
-0.0160729
0.263759
-0.0189129
0.253703
-0.0220996
0.244131
-0.0257189
0.235168
-0.029835
0.226471
-0.0343612
0.217628
-0.0390525
0.208482
-0.0437485
0.199159
-0.0482238
0.189549
-0.0521724
0.179555
-0.055698
0.169738
-0.0582342
0.159395
-0.0589477
0.147507
-0.0564041
0.13238
-0.0486482
0.108403
-0.0332308
0.0681684
-0.0117655
0.0113744
-0.00305254
-0.0139236
-0.000148695
-0.0160265
0.000238643
-0.0126453
-0.00559936
-0.00709828
1.01647
-0.00196419
0.909684
-0.00592127
0.937734
-0.00352873
0.833794
-0.00588799
0.840937
-0.00522976
0.763732
-0.00639728
0.754377
-0.0067708
0.697666
-0.00733913
0.678112
-0.0080124
0.63593
-0.00837136
0.611182
-0.00897962
0.578249
-0.00927214
0.552405
-0.00960809
0.525158
-0.00982624
0.500667
-0.0100076
0.477056
-0.0101569
0.454918
-0.0102747
0.434016
-0.0103698
0.414331
-0.0104538
0.395823
-0.0105525
0.378458
-0.010698
0.362194
-0.010913
0.346987
-0.0111933
0.332787
-0.0115178
0.319571
-0.0119109
0.307339
-0.012494
0.296045
-0.0134576
0.28553
-0.0149542
0.275541
-0.0170095
0.265814
-0.0195147
0.256208
-0.0223176
0.246934
-0.0254456
0.238296
-0.0290558
0.230081
-0.0332361
0.221809
-0.038058
0.213304
-0.043274
0.204375
-0.0486681
0.194943
-0.0542983
0.185185
-0.0588494
0.174289
-0.0613253
0.161871
-0.0606223
0.146804
-0.0549046
0.126663
-0.0416691
0.0951674
-0.0206715
0.0471708
-0.00124193
-0.00805516
0.00528865
-0.0204542
0.00620039
-0.0169382
0.00326163
-0.00970655
-0.00233773
-0.00664396
1.02311
-0.000763708
0.903804
-0.00515165
0.942122
-0.00440651
0.833049
-0.00632283
0.842853
-0.00728627
0.764696
-0.00761099
0.754702
-0.0087105
0.698766
-0.00866117
0.678062
-0.0096911
0.63696
-0.00984321
0.611334
-0.0105322
0.578938
-0.0107822
0.552655
-0.0111363
0.525512
-0.0113075
0.500838
-0.0114117
0.47716
-0.0114303
0.454936
-0.0113849
0.433971
-0.0113002
0.414247
-0.0111877
0.39571
-0.0110522
0.378322
-0.0109115
0.362054
-0.0107992
0.346874
-0.0107604
0.332748
-0.0108258
0.319637
-0.011004
0.307517
-0.0113372
0.296379
-0.0119543
0.286147
-0.0130627
0.27665
-0.0148294
0.267581
-0.0172869
0.258665
-0.0203376
0.249985
-0.0239596
0.241918
-0.0282912
0.234413
-0.0333511
0.226869
-0.0389457
0.218898
-0.0451085
0.210538
-0.0516055
0.20144
-0.057453
0.191033
-0.0621105
0.178947
-0.0651266
0.164887
-0.063431
0.145108
-0.052973
0.116205
-0.0326621
0.0748565
-0.00404882
0.0185575
0.0111501
-0.0232541
0.0139741
-0.0232782
0.0128596
-0.0158237
0.0066011
-0.00344803
0.00426337
-0.00938973
1.0325
-0.00374939
0.898164
-0.00834642
0.946719
-0.0083144
0.833017
-0.00826359
0.842802
-0.0100429
0.766475
-0.00928799
0.753947
-0.01125
0.700728
-0.011373
0.678185
-0.0128217
0.638409
-0.0131709
0.611683
-0.0140499
0.579817
-0.0144208
0.553026
-0.0149152
0.526006
-0.015222
0.501145
-0.0154612
0.477399
-0.0155881
0.455063
-0.0156235
0.434006
-0.0155915
0.414215
-0.0155186
0.395638
-0.0154138
0.378218
-0.0152833
0.361923
-0.0151254
0.346717
-0.014939
0.332562
-0.0147537
0.319451
-0.0146162
0.30738
-0.0145781
0.29634
-0.0147273
0.286296
-0.0152161
0.277138
-0.0162418
0.268606
-0.0178961
0.260319
-0.0200881
0.252177
-0.0227724
0.244602
-0.0261498
0.23779
-0.0305271
0.231246
-0.0361315
0.224503
-0.0428867
0.217293
-0.0504922
0.209045
-0.0585193
0.19906
-0.0652522
0.18568
-0.0686986
0.168334
-0.0651562
0.141566
-0.0507015
0.10175
-0.0191036
0.0432585
0.00848971
-0.00903583
0.0156844
-0.0304488
0.0185602
-0.026154
0.0168784
-0.014142
0.00869015
0.00474026
0.0129535
-0.0169881
1.04949
-0.00956864
0.890744
-0.00571843
0.942868
-0.0103199
0.837618
-0.00670267
0.839185
-0.0112299
0.771002
-0.00981978
0.752537
-0.0130652
0.703973
-0.0126951
0.677815
-0.0145302
0.640244
-0.0146475
0.6118
-0.0155976
0.580767
-0.0160492
0.553477
-0.0165722
0.526529
-0.0168811
0.501454
-0.0170922
0.47761
-0.0171738
0.455145
-0.0171319
0.433964
-0.0169778
0.414061
-0.0167316
0.395391
-0.016416
0.377902
-0.0160571
0.361564
-0.0156907
0.34635
-0.0153333
0.332204
-0.0149817
0.3191
-0.0146483
0.307047
-0.014379
0.296071
-0.0142504
0.286168
-0.0143752