/*--------------------------------*- C++ -*----------------------------------*\
| =========                 |                                                 |
| \\      /  F ield         | OpenFOAM: The Open Source CFD Toolbox           |
|  \\    /   O peration     | Version:  v1912                                 |
|   \\  /    A nd           | Website:  www.openfoam.com                      |
|    \\/     M anipulation  |                                                 |
\*---------------------------------------------------------------------------*/
FoamFile
{
    version     2.0;
    format      ascii;
    class       volVectorField;
    location    "0.02";
    object      U;
}
// * * * * * * * * * * * * * * * * * * * * * * * * * * * * * * * * * * * * * //

dimensions      [0 1 -1 0 0 0 0];


internalField   nonuniform List<vector> 
6600
(
(39.9566 -0.343633 0)
(40.2928 -0.36286 2.27021e-20)
(40.2504 -0.425091 1.577e-18)
(40.4121 -0.364854 0)
(40.4029 -0.269714 1.8866e-18)
(40.4045 -0.145943 6.46119e-20)
(40.4233 0.106852 -7.16942e-20)
(40.4377 0.462804 -8.00284e-20)
(40.4623 0.740532 1.62226e-18)
(40.4721 0.925834 -1.46096e-19)
(40.4808 1.04964 0)
(40.4878 1.15454 -2.00008e-18)
(40.4913 1.25627 0)
(40.4909 1.35813 -2.25132e-18)
(40.4845 1.48748 -2.98914e-18)
(40.4737 1.6421 -1.58428e-18)
(40.4609 1.81284 0)
(40.4448 1.99887 0)
(40.4277 2.2038 2.53909e-18)
(40.4162 2.42758 -2.39419e-18)
(40.4111 2.67297 -3.46541e-19)
(40.4047 2.94509 -1.23476e-18)
(40.3885 3.24996 -2.28502e-18)
(40.3642 3.59028 5.0394e-19)
(40.332 3.96643 1.8017e-18)
(40.302 4.38108 0)
(40.2722 4.83728 4.3678e-18)
(40.2423 5.33978 0)
(40.2061 5.8912 -2.12464e-18)
(40.1648 6.48978 -1.35179e-18)
(40.1183 7.14622 -3.56928e-19)
(40.0611 7.85991 -1.6115e-18)
(39.9908 8.64388 -6.7112e-19)
(39.9175 9.49882 1.27301e-18)
(39.8538 10.44 3.95863e-19)
(39.8097 11.474 1.35612e-18)
(39.7701 12.6151 2.68945e-18)
(39.7374 13.8605 2.33321e-18)
(39.7149 15.206 -1.60866e-18)
(39.6765 16.6462 1.6067e-18)
(39.6449 18.2128 7.37792e-19)
(39.6409 19.9134 0)
(39.7412 21.6929 3.39644e-19)
(39.8568 23.5724 -6.24086e-19)
(39.8962 25.5094 0)
(40.0084 27.6773 -2.09513e-18)
(40.0777 29.8482 -5.07715e-18)
(40.5841 32.4218 0)
(39.1375 33.9641 0)
(29.4864 27.8173 -2.94901e-18)
(39.6851 -1.21158 1.39877e-18)
(40.6689 -0.54796 -1.36021e-18)
(40.218 -0.595923 0)
(40.553 -0.325371 -2.62169e-20)
(40.4009 -0.168198 1.85776e-18)
(40.4715 0.174663 6.38179e-20)
(40.4482 0.520008 -4.01174e-22)
(40.4988 0.770048 -7.90535e-20)
(40.506 0.931303 0)
(40.507 1.05343 -2.99418e-18)
(40.5251 1.15161 -1.07266e-19)
(40.5464 1.24534 1.87242e-18)
(40.5685 1.33928 1.95254e-18)
(40.5878 1.44225 1.27143e-18)
(40.6056 1.57141 -1.09771e-21)
(40.6182 1.73146 1.85921e-19)
(40.6213 1.90984 -1.62198e-18)
(40.6091 2.10688 0)
(40.5895 2.32637 0)
(40.5792 2.5665 2.4372e-18)
(40.5843 2.82885 3.32209e-19)
(40.6008 3.11677 -1.79228e-18)
(40.6189 3.43673 -1.58947e-18)
(40.6335 3.79235 -1.77253e-18)
(40.6364 4.18818 -1.45028e-18)
(40.6355 4.62313 -5.79932e-19)
(40.6344 5.10167 -7.28485e-19)
(40.6388 5.62544 -7.17419e-19)
(40.6421 6.20346 2.09548e-18)
(40.649 6.83914 3.02501e-19)
(40.6636 7.54147 -2.54695e-18)
(40.6918 8.30528 2.25879e-18)
(40.7293 9.13849 1.4575e-18)
(40.7691 10.0375 -1.88172e-18)
(40.8028 11.0105 4.31232e-19)
(40.8453 12.0476 -1.38702e-18)
(40.8945 13.1616 7.17294e-19)
(40.952 14.3596 -9.11757e-19)
(41.034 15.6486 -2.61296e-19)
(41.1414 17.0211 -1.94917e-19)
(41.3047 18.477 0)
(41.4432 20.0347 0)
(41.5883 21.7367 8.86381e-19)
(41.8275 23.6263 -1.07384e-18)
(42.0714 25.5813 -3.73219e-18)
(42.4177 27.6934 2.1637e-18)
(42.7308 29.7865 7.40347e-18)
(43.4247 32.2042 0)
(42.1123 33.2991 -7.59308e-18)
(30.9334 26.9565 3.30483e-18)
(38.4191 -1.42167 -8.33707e-20)
(41.0741 -0.186856 1.38664e-18)
(40.1229 -0.525853 1.49769e-18)
(40.6538 0.0101181 -3.73547e-22)
(40.2897 0.151061 -1.29631e-19)
(40.5646 0.534547 6.32881e-20)
(40.4437 0.73879 0)
(40.555 0.890043 0)
(40.5295 1.0017 0)
(40.5459 1.08974 1.62034e-18)
(40.5685 1.17752 -1.04116e-19)
(40.5929 1.28299 -1.88493e-18)
(40.6249 1.39635 -9.68648e-19)
(40.6658 1.51911 2.14544e-18)
(40.708 1.6679 1.24228e-18)
(40.7489 1.83433 -1.78016e-19)
(40.7796 2.01253 3.3713e-18)
(40.7938 2.2074 -1.71035e-18)
(40.7923 2.42804 -1.90365e-18)
(40.7882 2.67495 0)
(40.7928 2.94732 -1.17718e-18)
(40.8119 3.246 1.43898e-18)
(40.8469 3.57486 1.60856e-18)
(40.894 3.93754 1.79492e-18)
(40.9414 4.3434 1.52868e-18)
(40.9861 4.79265 -1.83374e-19)
(41.0273 5.28744 -2.8705e-19)
(41.0724 5.82131 -8.22967e-19)
(41.1207 6.39868 -3.40477e-19)
(41.1689 7.02065 1.24975e-18)
(41.2132 7.69959 3.89713e-19)
(41.2575 8.43672 0)
(41.3091 9.23946 -1.5895e-18)
(41.3862 10.1119 3.56934e-19)
(41.4857 11.0665 7.12394e-19)
(41.6127 12.1111 6.4359e-19)
(41.7649 13.2377 -6.22918e-19)
(41.947 14.4574 -1.23079e-19)
(42.157 15.773 5.29283e-19)
(42.3676 17.1889 0)
(42.6167 18.7166 1.43641e-18)
(42.9493 20.3227 0)
(43.3897 21.9508 0)
(43.8771 23.6773 3.76543e-18)
(44.3469 25.4825 2.24961e-18)
(44.9056 27.4746 -4.15548e-18)
(45.4781 29.4967 -4.37307e-18)
(46.3328 31.6953 0)
(44.9832 32.3411 -4.6979e-18)
(32.2487 25.6075 5.087e-18)
(36.8981 -0.0131253 -1.32982e-18)
(41.4964 0.234467 9.56237e-21)
(39.9417 0.11205 -1.55721e-18)
(41.1079 0.508396 -1.3835e-18)
(40.2871 0.62812 -1.81255e-18)
(40.7344 0.774359 -8.65547e-19)
(40.5012 0.853777 -6.60878e-20)
(40.6404 0.931466 0)
(40.5791 1.01717 1.28298e-18)
(40.6236 1.08613 1.4618e-18)
(40.6386 1.18058 -9.95361e-20)
(40.6654 1.29028 -1.10807e-19)
(40.7021 1.4024 -8.8699e-19)
(40.7445 1.54232 -2.03371e-19)
(40.7982 1.70248 7.52762e-20)
(40.8553 1.87878 -1.68741e-19)
(40.911 2.0652 8.07985e-20)
(40.9583 2.27252 1.93311e-18)
(40.9969 2.50657 2.57283e-18)
(41.029 2.76895 0)
(41.0584 3.05923 1.18693e-19)
(41.0901 3.37573 0)
(41.1338 3.7168 0)
(41.195 4.08447 -3.75088e-19)
(41.269 4.48801 1.17228e-18)
(41.3483 4.9379 1.19765e-18)
(41.4277 5.44414 -2.46207e-19)
(41.5141 6.00667 1.1458e-18)
(41.6133 6.62377 0)
(41.7354 7.2954 0)
(41.8792 8.02226 4.38028e-19)
(42.0402 8.80752 0)
(42.2074 9.64715 4.42532e-19)
(42.3879 10.5479 3.79055e-19)
(42.5825 11.5055 -6.48757e-19)
(42.8025 12.5275 -2.17768e-19)
(43.049 13.6125 -7.56047e-19)
(43.3216 14.7625 3.15379e-19)
(43.6515 15.9862 4.61323e-19)
(44.0381 17.2831 5.43567e-19)
(44.4883 18.6597 -3.78676e-18)
(44.9392 20.1322 0)
(45.4071 21.7183 0)
(46.0171 23.4273 -2.29049e-18)
(46.6664 25.1564 -4.00958e-18)
(47.4284 27.0172 -9.98894e-19)
(48.2029 28.9507 -6.83092e-18)
(49.0769 30.8937 7.5479e-18)
(47.5378 31.0998 1.04587e-17)
(33.1881 23.9538 0)
(36.623 1.55428 -4.18826e-21)
(41.4646 0.191367 1.06202e-18)
(39.4576 0.829446 1.45022e-18)
(41.4044 0.523152 1.41981e-18)
(40.2468 0.804414 0)
(41.0856 0.773976 5.5391e-20)
(40.5651 0.882722 0)
(40.8504 0.931774 -6.93274e-20)
(40.7218 1.03173 -2.43631e-18)
(40.7907 1.10963 -1.46486e-18)
(40.7812 1.22631 9.3004e-20)
(40.8055 1.33421 1.03817e-19)
(40.8322 1.46039 -1.15624e-19)
(40.8762 1.5969 -1.0648e-18)
(40.9252 1.74919 -2.40532e-18)
(40.9835 1.90955 1.58138e-19)
(41.0429 2.08614 -2.77076e-18)
(41.1057 2.2895 1.91757e-19)
(41.1756 2.52515 -8.9318e-19)
(41.2483 2.79686 -4.65808e-19)
(41.3207 3.10521 1.33851e-18)
(41.3924 3.44826 0)
(41.469 3.81944 0)
(41.5606 4.21514 -5.81854e-19)
(41.6722 4.63243 -7.63752e-19)
(41.7996 5.07698 8.07164e-19)
(41.9276 5.55903 -1.96462e-19)
(42.0487 6.08834 0)
(42.1762 6.67033 1.78945e-19)
(42.3172 7.30596 -1.99328e-19)
(42.4784 7.99893 -4.45227e-19)
(42.6609 8.75417 -1.77339e-19)
(42.8754 9.56601 1.00941e-19)
(43.1263 10.4363 8.44084e-20)
(43.4094 11.383 -9.39285e-20)
(43.729 12.4036 0)
(44.0988 13.4975 3.86981e-19)
(44.5049 14.658 2.29666e-18)
(44.9538 15.8941 -1.22297e-18)
(45.4097 17.2102 -1.64132e-18)
(45.9344 18.6134 2.37109e-18)
(46.6062 20.0672 0)
(47.3599 21.5068 0)
(48.1785 23.0287 -3.80096e-18)
(49.034 24.5919 8.33934e-18)
(49.9576 26.2945 2.22688e-18)
(50.916 28.1142 4.13667e-18)
(51.7657 29.7769 -9.08039e-18)
(49.8238 29.5786 7.76584e-19)
(33.741 22.0274 -1.42559e-17)
(37.1468 2.52573 1.15896e-18)
(41.3316 -0.267349 8.47776e-21)
(39.0608 1.21239 -1.47605e-18)
(41.4212 0.364557 6.36699e-19)
(40.0746 0.822965 0)
(41.2605 0.574918 8.74211e-19)
(40.5881 0.845886 -2.93266e-20)
(41.1031 0.774579 -9.871e-19)
(40.8558 0.992714 1.23669e-18)
(41.0487 1.04387 0)
(41.0018 1.20367 8.70144e-20)
(41.0502 1.34672 6.27052e-19)
(41.0724 1.50042 -9.17909e-19)
(41.1109 1.66521 1.17287e-19)
(41.1578 1.8309 1.2154e-18)
(41.2095 1.99526 -1.42365e-19)
(41.2689 2.17207 9.03048e-19)
(41.341 2.36631 -1.72173e-19)
(41.4253 2.5866 1.84686e-19)
(41.5159 2.84058 5.27341e-19)
(41.6101 3.13261 6.76788e-19)
(41.7081 3.46621 5.21873e-21)
(41.8125 3.84063 2.49431e-19)
(41.9318 4.25531 8.99302e-19)
(42.0762 4.70537 0)
(42.2505 5.19153 -6.38433e-19)
(42.4459 5.71225 1.19102e-19)
(42.6458 6.27417 -2.66905e-20)
(42.8463 6.87871 -9.63152e-20)
(43.0691 7.53104 9.36636e-20)
(43.329 8.23528 9.19476e-20)
(43.6175 8.99871 8.80825e-20)
(43.9316 9.8251 0)
(44.2723 10.6981 0)
(44.6494 11.6156 0)
(45.0603 12.5867 0)
(45.5111 13.6122 1.8659e-18)
(46.006 14.6847 -3.64231e-18)
(46.5773 15.798 0)
(47.2304 16.9593 3.7928e-20)
(47.9391 18.1682 -3.81877e-19)
(48.6485 19.4811 -5.52425e-18)
(49.3956 20.8763 3.05408e-18)
(50.2946 22.3267 0)
(51.2646 23.7626 3.02052e-18)
(52.3252 25.2948 -1.09903e-17)
(53.4072 27.0015 7.84307e-18)
(54.1244 28.3937 5.89475e-18)
(51.6711 27.7802 2.15438e-17)
(33.8003 19.8256 -1.61919e-17)
(38.0792 3.02914 -1.15785e-18)
(40.997 -1.24319 -2.16466e-18)
(39.1063 1.55987 1.99877e-20)
(41.4861 -0.124017 -6.4724e-19)
(39.9288 0.999267 7.7115e-19)
(41.336 0.293688 -2.58012e-20)
(40.613 0.859122 9.23035e-19)
(41.2124 0.554831 9.91071e-19)
(40.9728 0.956556 1.12076e-18)
(41.205 0.865202 -3.73034e-20)
(41.1817 1.12232 -6.39013e-19)
(41.2747 1.23954 -6.22158e-20)
(41.3067 1.42998 8.16964e-19)
(41.3623 1.62171 0)
(41.4161 1.81971 0)
(41.4763 2.02477 6.10648e-20)
(41.5545 2.23594 1.00942e-18)
(41.6541 2.45792 0)
(41.7698 2.69431 7.54232e-20)
(41.8921 2.95078 -8.23177e-19)
(42.0148 3.23175 -7.07363e-19)
(42.1366 3.54296 2.06894e-19)
(42.2613 3.88758 0)
(42.3989 4.26918 -4.50688e-19)
(42.5641 4.68903 -8.10006e-20)
(42.7687 5.14927 9.03621e-20)
(43.0087 5.65126 0)
(43.2627 6.19885 0)
(43.5185 6.79257 -1.84963e-19)
(43.7711 7.42359 2.02959e-19)
(44.0474 8.08666 -2.55362e-19)
(44.3689 8.7881 1.80758e-19)
(44.7355 9.54494 4.22766e-19)
(45.1457 10.3721 -1.09477e-18)
(45.6019 11.2597 2.08647e-18)
(46.114 12.2086 8.01998e-19)
(46.6846 13.2143 -1.29249e-18)
(47.3082 14.2844 1.79064e-18)
(47.9675 15.3998 -3.05606e-18)
(48.6383 16.568 5.36658e-20)
(49.3937 17.7767 -4.46326e-19)
(50.3205 18.9888 2.83922e-18)
(51.3192 20.1781 4.31796e-18)
(52.3763 21.429 -4.79695e-18)
(53.4796 22.6817 3.05074e-18)
(54.6377 24.0465 0)
(55.7957 25.5943 4.83423e-18)
(56.3302 26.679 7.3302e-18)
(53.0761 25.6996 -1.50746e-17)
(33.3113 17.3707 -4.79985e-18)
(39.0209 3.09786 9.9472e-19)
(40.7031 -1.87364 1.05758e-18)
(39.6712 1.99105 9.58417e-21)
(41.57 -0.525887 -5.54811e-19)
(40.0361 1.22719 -1.52492e-18)
(41.5016 0.143168 6.88986e-19)
(40.6357 0.961718 -1.76729e-18)
(41.4108 0.469284 4.07253e-19)
(41.0537 0.972646 -1.0906e-18)
(41.3739 0.754846 -5.20518e-19)
(41.3392 1.06503 1.28805e-18)
(41.4514 1.09918 -7.49604e-19)
(41.5114 1.30986 -6.5579e-19)
(41.5763 1.48061 1.73689e-21)
(41.6395 1.69005 -3.23955e-19)
(41.7096 1.91606 3.9772e-19)
(41.8005 2.15988 -4.98927e-19)
(41.9207 2.41715 0)
(42.0703 2.6862 0)
(42.2427 2.97034 0)
(42.4259 3.27322 -5.7926e-20)
(42.6073 3.60106 -2.38416e-19)
(42.7811 3.95648 -1.02436e-19)
(42.9502 4.34079 -5.46812e-20)
(43.1291 4.755 0)
(43.3425 5.20087 0)
(43.6103 5.68274 -1.02847e-19)
(43.9299 6.21441 7.12578e-20)
(44.2803 6.80575 -1.12358e-19)
(44.6525 7.4616 1.36243e-19)
(45.046 8.1636 8.76393e-20)
(45.4689 8.89542 6.60574e-19)
(45.9239 9.64846 -3.36208e-19)
(46.4129 10.4333 1.3426e-18)
(46.9403 11.2513 -9.62201e-19)
(47.5106 12.1129 -4.85066e-19)
(48.1283 13.0076 2.12716e-19)
(48.8044 13.9435 1.24455e-18)
(49.577 14.9057 1.30178e-18)
(50.4514 15.8903 2.09346e-18)
(51.3556 16.9 -4.29319e-19)
(52.245 18.0031 3.95984e-18)
(53.185 19.1354 -4.40471e-18)
(54.262 20.2793 0)
(55.4382 21.3923 0)
(56.6632 22.5644 0)
(57.8548 23.9476 0)
(58.1062 24.7513 0)
(53.9521 23.3967 -8.988e-18)
(32.168 14.7281 1.47361e-17)
(39.7535 2.90746 -9.96823e-19)
(40.4425 -2.14626 0)
(40.3157 2.29176 0)
(41.4301 -0.895752 5.65187e-19)
(40.3542 1.53587 7.22098e-19)
(41.5926 -0.019983 -6.88245e-19)
(40.7552 1.16944 8.6536e-19)
(41.5907 0.438747 -4.08486e-19)
(41.1414 1.07267 4.33545e-19)
(41.5841 0.738396 5.18163e-19)
(41.501 1.1104 -5.74466e-19)
(41.6681 1.05142 4.72426e-19)
(41.7473 1.25877 9.3635e-19)
(41.8279 1.38969 0)
(41.9124 1.56995 3.77684e-19)
(41.9895 1.78276 -4.43508e-19)
(42.0767 2.02308 3.91192e-21)
(42.1875 2.28488 -3.15162e-19)
(42.3324 2.56095 3.56851e-19)
(42.5193 2.84887 0)
(42.7456 3.15329 0)
(42.997 3.48357 7.3792e-20)
(43.258 3.84648 1.3727e-19)
(43.5177 4.24191 6.7345e-20)
(43.775 4.66518 3.40228e-20)
(44.0396 5.10664 -2.04329e-19)
(44.325 5.56232 3.70212e-19)
(44.6438 6.03314 -5.72055e-19)
(44.9963 6.53509 3.23618e-19)
(45.3685 7.08968 -3.23852e-19)
(45.776 7.70445 2.02242e-19)
(46.2424 8.37564 -6.9871e-19)
(46.7682 9.0925 5.704e-19)
(47.337 9.85195 -9.80928e-19)
(47.9497 10.6424 0)
(48.6143 11.4673 -1.05062e-18)
(49.3407 12.3271 -1.10949e-18)
(50.1191 13.2335 2.61363e-19)
(50.9237 14.1749 2.51243e-18)
(51.7418 15.156 -2.48998e-18)
(52.6567 16.1345 -4.00139e-19)
(53.7482 17.0774 -4.52462e-18)
(54.8948 18.0015 1.07027e-17)
(56.0855 18.9551 7.57336e-19)
(57.3002 19.8787 9.09411e-19)
(58.5871 20.9112 -4.40497e-18)
(59.6944 22.0639 0)
(59.581 22.5575 7.90989e-18)
(54.1311 20.8968 -4.22996e-18)
(30.3176 11.9792 0)
(40.2684 2.61854 3.15789e-21)
(40.2871 -2.14106 -1.4109e-23)
(40.8068 2.36299 -4.90815e-19)
(41.2009 -1.15796 0)
(40.659 1.7294 -8.77588e-21)
(41.5566 -0.270901 -2.56678e-19)
(40.8926 1.31846 0)
(41.6508 0.322442 3.13637e-19)
(41.2407 1.15878 -4.58756e-19)
(41.7243 0.706375 2.6367e-20)
(41.6213 1.15408 4.2004e-19)
(41.8799 1.02981 -2.73676e-19)
(41.968 1.25187 -3.093e-19)
(42.1091 1.34431 0)
(42.2421 1.50029 0)
(42.3577 1.69143 0)
(42.4675 1.91089 -1.81046e-19)
(42.5791 2.15924 3.16236e-19)
(42.7052 2.42853 -4.18027e-19)
(42.8646 2.70734 1.9521e-20)
(43.0716 2.9948 -3.19143e-20)
(43.3263 3.29935 -6.29617e-20)
(43.6162 3.63687 -1.1238e-19)
(43.9257 4.01961 -1.86115e-19)
(44.249 4.45269 0)
(44.5981 4.92662 2.35656e-19)
(44.9887 5.42925 -7.62891e-19)
(45.4261 5.94908 5.40571e-19)
(45.8988 6.48096 -3.48846e-19)
(46.3806 7.03316 2.14607e-19)
(46.8569 7.61709 -3.41955e-19)
(47.3605 8.23584 1.3053e-18)
(47.9296 8.89022 -1.55221e-18)
(48.5575 9.58535 2.1973e-18)
(49.2297 10.3131 9.84408e-19)
(49.9369 11.0553 -2.3611e-18)
(50.6806 11.7981 3.01047e-18)
(51.4768 12.5481 -2.03771e-18)
(52.3798 13.304 1.343e-20)
(53.394 14.067 0)
(54.4165 14.865 3.61204e-18)
(55.407 15.7381 2.51919e-18)
(56.4538 16.5924 3.2007e-19)
(57.6121 17.4312 -7.34405e-18)
(58.901 18.2331 -3.2932e-19)
(60.2231 19.129 -5.25518e-18)
(61.0912 19.9483 0)
(60.5462 20.2489 8.58432e-18)
(53.71 18.2732 -1.4385e-17)
(27.7281 9.22418 0)
(40.6385 2.32712 0)
(40.2569 -2.01689 0)
(41.2086 2.28601 2.8073e-19)
(41.0157 -1.27233 -1.47307e-20)
(40.9911 1.82225 2.64721e-19)
(41.4907 -0.481459 2.66977e-19)
(41.0659 1.4098 0)
(41.6823 0.156756 -3.14345e-19)
(41.3346 1.19207 3.27446e-19)
(41.8027 0.608082 0)
(41.6992 1.14717 -5.95123e-19)
(42.0126 0.949879 -4.31855e-20)
(42.1035 1.21069 -2.31594e-20)
(42.311 1.25924 2.58226e-20)
(42.4993 1.40508 0)
(42.6817 1.57478 0)
(42.8602 1.76837 1.69718e-19)
(43.027 1.99838 1.98783e-20)
(43.1863 2.26043 8.03277e-20)
(43.3548 2.53978 -2.81958e-21)
(43.5547 2.82485 1.27998e-20)
(43.8042 3.10845 -1.07798e-20)
(44.1039 3.3984 1.28545e-19)
(44.4383 3.71147 7.10306e-20)
(44.7855 4.06653 -2.48196e-19)
(45.1429 4.47049 -4.17552e-19)
(45.5288 4.91634 2.83484e-19)
(45.9721 5.3918 5.35503e-19)
(46.4846 5.89285 0)
(47.0399 6.41594 0)
(47.6008 6.96167 0)
(48.1646 7.52787 -9.31861e-19)
(48.7648 8.11069 -7.10845e-19)
(49.4251 8.7213 -7.62705e-19)
(50.1491 9.37992 1.14798e-18)
(50.9398 10.0843 1.44645e-18)
(51.7956 10.8157 -7.22395e-19)
(52.6853 11.5615 2.17722e-18)
(53.5712 12.3172 -1.28594e-18)
(54.455 13.0815 -1.75735e-18)
(55.4437 13.8016 -2.22148e-18)
(56.605 14.4784 2.47716e-18)
(57.8067 15.1468 0)
(59.0505 15.808 4.14483e-18)
(60.2809 16.4294 -2.36736e-18)
(61.6143 17.2149 2.90847e-18)
(62.2183 17.7469 0)
(60.9799 17.8424 -4.35517e-18)
(52.3278 15.5665 2.57721e-18)
(24.3599 6.56935 0)
(40.915 2.05845 1.53563e-19)
(40.3018 -1.84436 0)
(41.539 2.11227 3.97506e-19)
(40.9127 -1.28548 -1.82566e-19)
(41.3137 1.81211 -2.56952e-19)
(41.4273 -0.619346 7.31592e-21)
(41.2957 1.44671 -8.14185e-21)
(41.7152 -0.0160372 0)
(41.4811 1.19756 -3.19511e-19)
(41.8895 0.468229 1.13154e-19)
(41.803 1.10953 1.74338e-19)
(42.1195 0.830779 -1.74586e-19)
(42.2009 1.13601 6.30512e-20)
(42.4437 1.13116 1.68958e-20)
(42.6525 1.274 -8.39066e-21)
(42.8839 1.40855 0)
(43.1279 1.56215 5.33023e-20)
(43.3652 1.75716 -3.07019e-20)
(43.5903 1.99312 6.48822e-20)
(43.8068 2.26593 -6.34053e-21)
(44.0299 2.56565 1.71198e-20)
(44.2848 2.8736 0)
(44.5913 3.17969 5.32152e-20)
(44.951 3.48741 2.51522e-19)
(45.3469 3.81478 3.0335e-19)
(45.7621 4.17785 4.19816e-19)
(46.2001 4.58446 0)
(46.682 5.02566 -3.83771e-19)
(47.2377 5.49878 -9.16641e-19)
(47.8615 6.00584 5.37588e-19)
(48.5111 6.55067 -1.23227e-18)
(49.1671 7.12203 -6.45404e-19)
(49.8448 7.69511 1.23243e-18)
(50.5555 8.25346 -4.62195e-19)
(51.2948 8.8063 -1.15797e-18)
(52.0667 9.37341 -6.6285e-19)
(52.8828 9.95694 -9.19232e-19)
(53.7589 10.5407 0)
(54.7447 11.11 -1.57378e-18)
(55.8349 11.6649 3.4894e-18)
(56.9062 12.2597 2.22841e-18)
(57.9216 12.8891 -2.66714e-18)
(58.9939 13.4772 3.58502e-18)
(60.1439 14.04 -1.87965e-18)
(61.4555 14.5778 4.98955e-18)
(62.676 15.198 6.81968e-20)
(62.9125 15.4896 0)
(60.8366 15.3788 9.01624e-18)
(50.2518 12.8417 -7.72535e-18)
(20.22 4.08751 -2.92398e-18)
(41.1213 1.8142 -1.5369e-19)
(40.3725 -1.66101 1.38585e-19)
(41.7936 1.88935 -1.82422e-19)
(40.8654 -1.24535 1.80021e-19)
(41.5841 1.70306 9.14733e-20)
(41.3701 -0.711643 6.27255e-21)
(41.5338 1.40699 -3.42346e-21)
(41.7332 -0.173524 0)
(41.662 1.16413 1.01371e-19)
(41.9871 0.299288 -1.61136e-19)
(41.9435 1.04074 0)
(42.2455 0.679164 5.94311e-21)
(42.3236 1.03405 -3.67675e-20)
(42.5814 0.977628 -1.78253e-20)
(42.7878 1.12826 1.02841e-20)
(43.0431 1.22327 -3.00039e-21)
(43.3229 1.3336 9.94187e-22)
(43.6127 1.47856 0)
(43.9052 1.65649 -4.80873e-21)
(44.1921 1.87705 1.21056e-19)
(44.4745 2.14132 -1.4625e-20)
(44.7693 2.43474 0)
(45.1018 2.73778 0)
(45.4872 3.03628 -1.1321e-19)
(45.9137 3.3347 6.51264e-20)
(46.3539 3.64817 -5.00614e-19)
(46.7928 3.98375 2.04419e-19)
(47.2538 4.34169 -1.22484e-19)
(47.7763 4.71704 4.36356e-19)
(48.3842 5.11384 2.00365e-19)
(49.054 5.55136 7.31203e-19)
(49.7492 6.04324 -7.65969e-19)
(50.4748 6.57853 4.96048e-19)
(51.2551 7.12829 -5.69593e-19)
(52.0773 7.67376 -7.23518e-19)
(52.934 8.21408 -8.17748e-19)
(53.8391 8.76995 0)
(54.7744 9.34967 2.02485e-18)
(55.6861 9.94737 -7.6564e-19)
(56.5798 10.5222 -1.91382e-18)
(57.5768 11.0115 2.31441e-18)
(58.7365 11.4651 -8.25739e-20)
(59.9161 11.8962 -1.86948e-18)
(61.1411 12.2932 -5.19551e-20)
(62.3776 12.7065 -2.51198e-18)
(63.2806 13.0909 -6.20514e-18)
(63.2198 13.2296 3.66087e-18)
(59.9394 12.9064 0)
(46.914 10.1208 -5.35404e-18)
(15.2167 1.91865 1.02592e-17)
(41.2722 1.58445 -2.29631e-22)
(40.4423 -1.48023 -1.3959e-19)
(41.9777 1.64445 3.07915e-20)
(40.8447 -1.17864 1.17549e-21)
(41.7974 1.52678 -9.13686e-20)
(41.321 -0.769057 0)
(41.7409 1.29312 0)
(41.7322 -0.317861 2.57986e-21)
(41.8353 1.0666 -1.5189e-19)
(42.0553 0.111696 4.58653e-20)
(42.0859 0.925163 -2.1108e-21)
(42.3635 0.481933 3.96587e-21)
(42.4567 0.887686 -3.30969e-20)
(42.7222 0.779084 2.70001e-20)
(42.9265 0.948181 3.80618e-21)
(43.1936 1.01169 -1.33197e-20)
(43.4823 1.09821 2.29002e-20)
(43.7927 1.20661 8.56028e-21)
(44.1199 1.33334 -9.37421e-20)
(44.4515 1.49623 -7.6018e-20)
(44.7786 1.70649 4.79338e-21)
(45.1054 1.96423 -2.78363e-20)
(45.4577 2.25663 0)
(45.8715 2.56205 -1.69586e-19)
(46.3653 2.86891 5.59227e-21)
(46.9153 3.18702 5.15943e-20)
(47.4773 3.53248 5.6289e-20)
(48.0284 3.90073 1.62039e-19)
(48.5961 4.27633 0)
(49.2134 4.64905 1.29584e-19)
(49.8844 5.02608 7.53801e-19)
(50.5855 5.43159 7.26829e-19)
(51.3147 5.87531 -4.1651e-19)
(52.0988 6.34728 8.86671e-19)
(52.9342 6.83022 -7.33087e-19)
(53.7823 7.29741 -4.70315e-19)
(54.6293 7.72447 0)
(55.5172 8.12354 -1.34617e-18)
(56.5204 8.50674 -8.87329e-19)
(57.629 8.89871 9.91256e-19)
(58.699 9.33652 -1.23434e-18)
(59.6737 9.75042 1.50137e-18)
(60.6958 10.1225 0)
(61.7759 10.4725 1.11287e-18)
(63.0616 10.8353 0)
(63.628 11.016 1.59491e-18)
(63.0263 11.0142 -3.82001e-18)
(58.298 10.4123 2.19613e-18)
(42.7682 7.47655 0)
(9.64214 0.181838 7.29043e-19)
(41.3753 1.35973 -2.3802e-23)
(40.4902 -1.30523 -2.50789e-23)
(42.119 1.38384 -3.18001e-20)
(40.8393 -1.08899 -1.17239e-22)
(41.957 1.30862 -7.80821e-22)
(41.284 -0.792758 -1.24845e-22)
(41.9004 1.12221 1.38961e-22)
(41.7106 -0.439426 -2.39214e-22)
(41.9794 0.913652 4.10403e-20)
(42.0894 -0.0770678 2.91108e-22)
(42.209 0.757925 1.32207e-22)
(42.4473 0.252495 -1.95391e-22)
(42.5744 0.688527 -6.62917e-21)
(42.8412 0.526384 -2.23339e-21)
(43.0565 0.709711 -1.34664e-20)
(43.3398 0.739679 1.31044e-20)
(43.6415 0.811926 -2.21517e-20)
(43.9754 0.890452 -1.48841e-21)
(44.3398 0.973273 -2.0709e-21)
(44.7223 1.07651 0)
(45.1076 1.21231 -3.76352e-21)
(45.4809 1.39182 -2.5176e-21)
(45.8441 1.61459 2.81432e-21)
(46.2256 1.86355 0)
(46.6665 2.11828 0)
(47.1878 2.37145 1.91748e-19)
(47.7687 2.64067 0)
(48.3783 2.94742 -1.62271e-19)
(49.012 3.28325 0)
(49.6856 3.62422 8.77635e-21)
(50.4022 3.9568 -3.4429e-19)
(51.1307 4.29483 2.49494e-20)
(51.8567 4.65951 -5.31605e-19)
(52.6253 5.04939 4.83606e-20)
(53.4774 5.47156 3.30153e-19)
(54.4044 5.93436 5.29109e-19)
(55.371 6.41039 -1.88765e-20)
(56.323 6.87262 0)
(57.2056 7.32665 -1.39537e-20)
(58.0472 7.71864 1.68766e-20)
(58.9899 8.02256 0)
(60.1014 8.32571 -2.4452e-20)
(61.2148 8.5771 -1.21467e-19)
(62.3686 8.78604 -9.58689e-19)
(63.4052 8.99963 -1.95353e-20)
(63.5662 9.03741 0)
(62.1781 8.82959 0)
(55.5226 7.96251 3.17639e-19)
(37.2464 4.8136 -3.14418e-19)
(5.49701 -0.759245 7.19308e-19)
(41.434 1.14545 -3.43723e-20)
(40.5049 -1.1293 -4.10172e-20)
(42.2214 1.12713 -1.90884e-20)
(40.8219 -0.990537 -2.35213e-20)
(42.0721 1.05905 -2.01636e-20)
(41.2373 -0.791901 2.18643e-20)
(42.0195 0.904532 0)
(41.6716 -0.532075 0)
(42.0899 0.719135 -8.77748e-21)
(42.0874 -0.255498 -2.91094e-22)
(42.2982 0.555859 1.86622e-21)
(42.4846 0.0129169 7.69141e-23)
(42.6482 0.453489 -1.16207e-20)
(42.9026 0.245536 2.39664e-20)
(43.1242 0.43287 3.94122e-20)
(43.4089 0.429042 0)
(43.7078 0.49214 0)
(44.0443 0.550369 1.4882e-21)
(44.4194 0.609416 2.0706e-21)
(44.8297 0.679741 -1.04256e-19)
(45.2669 0.770992 3.76293e-21)
(45.7137 0.89903 0)
(46.1564 1.07574 0)
(46.6017 1.29552 -3.81643e-20)
(47.0789 1.53745 -1.95344e-19)
(47.6177 1.78207 6.13182e-20)
(48.2173 2.02617 0)
(48.8518 2.29197 -1.904e-19)
(49.5165 2.59393 0)
(50.2285 2.92562 -8.7741e-21)
(51.0014 3.26326 0)
(51.804 3.59491 0)
(52.5848 3.92507 1.44991e-19)
(53.3425 4.24834 1.7379e-19)
(54.1255 4.55983 0)
(54.9501 4.87802 0)
(55.803 5.20312 1.88688e-20)
(56.7049 5.50818 0)
(57.7061 5.77743 1.39475e-20)
(58.7936 6.07631 -5.66108e-19)
(59.8175 6.39691 6.80885e-19)
(60.7006 6.65058 7.9099e-20)
(61.6097 6.89089 6.26949e-20)
(62.6728 7.14796 -1.04147e-18)
(63.314 7.26964 -6.60079e-19)
(63.1826 7.20758 3.91181e-18)
(60.6825 6.91107 -1.79547e-18)
(51.8496 5.77685 -2.20592e-18)
(30.2669 2.42799 1.81358e-18)
(2.4098 -0.865244 0)
(41.4576 0.940771 3.42029e-20)
(40.4947 -0.958083 -2.61047e-20)
(42.2806 0.87675 1.88515e-20)
(40.7808 -0.887607 -1.53321e-20)
(42.1493 0.785629 2.18147e-20)
(41.1771 -0.770085 -2.2688e-20)
(42.0974 0.655704 -9.73484e-22)
(41.6176 -0.60499 1.08384e-21)
(42.1636 0.485016 8.3039e-21)
(42.0499 -0.412365 5.22032e-22)
(42.3607 0.317338 -1.93402e-21)
(42.4845 -0.224946 2.40264e-20)
(42.6982 0.187674 -2.65145e-20)
(42.9382 -0.0582753 -2.05746e-20)
(43.1768 0.116284 -1.38709e-19)
(43.4687 0.0708782 9.10823e-21)
(43.7739 0.113415 -1.0167e-20)
(44.1182 0.13936 1.29512e-19)
(44.5003 0.164525 2.28156e-20)
(44.9208 0.191063 7.86487e-20)
(45.3765 0.222372 0)
(45.8519 0.272833 0)
(46.3245 0.36006 0)
(46.7847 0.495373 0)
(47.2517 0.66968 1.89075e-19)
(47.768 0.856835 -5.11003e-19)
(48.3608 1.04148 0)
(49.0087 1.23168 5.91481e-19)
(49.6888 1.44476 0)
(50.4055 1.68835 0)
(51.1879 1.95664 -7.69158e-19)
(52.0328 2.25198 4.92678e-19)
(52.8902 2.57616 -1.15623e-18)
(53.7286 2.90597 3.3142e-19)
(54.5749 3.22058 0)
(55.4644 3.54276 0)
(56.3975 3.89529 6.57257e-19)
(57.318 4.27806 -2.27218e-18)
(58.1618 4.6585 0)
(58.9409 4.929 -1.70249e-18)
(59.8013 5.13084 2.64097e-18)
(60.8183 5.35388 -3.14686e-18)
(61.864 5.51993 1.7838e-18)
(62.8842 5.64316 -2.14053e-18)
(63.1704 5.65829 5.5628e-18)
(62.3938 5.62023 -5.25246e-18)
(58.2978 5.23852 3.60947e-18)
(46.3366 3.99245 -8.12182e-18)
(22.0506 0.760992 9.71946e-18)
(0.0412071 -0.34127 -6.23267e-18)
(41.4445 0.743319 3.85569e-20)
(40.4651 -0.794969 1.24874e-20)
(42.286 0.625885 0)
(40.7249 -0.764909 3.84192e-20)
(42.1851 0.507259 3.94161e-20)
(41.1058 -0.715213 -1.84944e-21)
(42.1303 0.3838 0)
(41.539 -0.64661 0)
(42.1774 0.236535 -9.81839e-24)
(41.9819 -0.543856 1.0937e-23)
(42.3608 0.0674255 -3.20197e-20)
(42.4202 -0.431908 4.0788e-20)
(42.6782 -0.0811385 3.89199e-20)
(42.8842 -0.337104 -7.66258e-20)
(43.1325 -0.189332 9.51935e-20)
(43.4137 -0.267804 2.04473e-20)
(43.7133 -0.245807 -2.29617e-19)
(44.0533 -0.247651 -4.07001e-19)
(44.4333 -0.244042 0)
(44.8611 -0.239041 2.41342e-19)
(45.3424 -0.23325 3.1378e-19)
(45.872 -0.219214 0)
(46.4301 -0.181654 -5.19636e-19)
(46.9885 -0.101678 0)
(47.5321 0.0312072 0)
(48.0786 0.201039 5.0945e-19)
(48.6685 0.376146 3.1833e-19)
(49.3194 0.550341 8.21434e-19)
(50.0149 0.737031 0)
(50.7389 0.946916 0)
(51.5131 1.17099 3.55965e-19)
(52.3561 1.40518 4.58668e-19)
(53.2345 1.67395 1.81075e-18)
(54.102 1.97812 6.40049e-20)
(54.9499 2.26115 7.27302e-20)
(55.7744 2.49431 -2.13639e-18)
(56.5854 2.70451 -9.4419e-20)
(57.4438 2.89702 3.01963e-18)
(58.4052 3.09779 1.85764e-18)
(59.4515 3.38598 1.09971e-18)
(60.4126 3.6536 2.71457e-18)
(61.2257 3.85329 1.8344e-19)
(62.1005 4.09814 -3.43099e-18)
(62.6717 4.29243 -2.05223e-18)
(62.591 4.35585 -6.38463e-18)
(60.9576 4.25456 7.38597e-18)
(54.8795 3.8935 -3.34549e-18)
(40.0309 2.68503 0)
(11.8178 -0.0349293 0)
(-1.85476 0.378344 1.2165e-18)
(41.3945 0.541935 -9.40994e-20)
(40.4112 -0.619752 -3.52507e-20)
(42.2583 0.373901 2.54939e-20)
(40.6703 -0.634307 -1.2763e-21)
(42.1805 0.235902 -5.66891e-20)
(41.0184 -0.640672 1.32308e-21)
(42.1392 0.089548 0)
(41.4431 -0.645207 2.17363e-20)
(42.168 -0.0474076 -7.20897e-22)
(41.903 -0.651249 -8.93714e-22)
(42.3287 -0.196507 7.82321e-20)
(42.355 -0.635222 -5.94225e-20)
(42.6413 -0.369821 2.05029e-21)
(42.8296 -0.618524 6.76621e-20)
(43.0951 -0.521818 0)
(43.3707 -0.628356 0)
(43.672 -0.641901 1.76943e-19)
(44.0063 -0.685506 3.09669e-19)
(44.3716 -0.724531 0)
(44.774 -0.767525 -2.40583e-19)
(45.2209 -0.816104 -3.12737e-19)
(45.7168 -0.866516 -1.10302e-19)
(46.2582 -0.909535 1.13228e-19)
(46.832 -0.925622 4.9339e-19)
(47.4189 -0.895289 2.00162e-19)
(48.0149 -0.810688 2.85171e-19)
(48.6399 -0.694665 -9.8206e-19)
(49.3131 -0.573875 -8.28247e-19)
(50.0344 -0.451157 1.05307e-18)
(50.7848 -0.309781 -1.30424e-18)
(51.5662 -0.143199 0)
(52.4037 0.0410759 0)
(53.2903 0.249198 6.8291e-20)
(54.1971 0.515629 -1.39956e-18)
(55.1364 0.836512 1.7849e-18)
(56.1146 1.16378 3.27871e-18)
(57.0785 1.48003 -1.24948e-18)
(57.9554 1.80901 -3.11396e-18)
(58.73 2.1159 -3.69802e-18)
(59.448 2.31453 -2.27293e-18)
(60.2554 2.52039 -1.53442e-19)
(61.1968 2.76412 2.97138e-18)
(62.1827 2.97498 0)
(62.5454 2.97146 2.02129e-18)
(62.125 3.07694 2.48453e-18)
(59.1285 3.07796 2.82086e-18)
(50.3559 2.71294 9.77933e-18)
(30.6858 1.47835 -3.66633e-18)
(4.39168 0.0204689 0)
(-3.18063 0.940405 0)
(41.3055 0.355229 1.6007e-20)
(40.3289 -0.434432 8.99818e-20)
(42.1948 0.151486 -2.64694e-20)
(40.5922 -0.48641 9.37052e-20)
(42.1191 -0.00222586 2.10272e-20)
(40.926 -0.544757 -3.03353e-22)
(42.0774 -0.166961 -6.91212e-22)
(41.3113 -0.605781 -2.21627e-20)
(42.1057 -0.313069 5.23813e-22)
(41.7546 -0.684841 4.21565e-21)
(42.2283 -0.44521 -4.1487e-20)
(42.2054 -0.774326 -8.33648e-21)
(42.4979 -0.609255 -1.15727e-19)
(42.6656 -0.841522 -1.68041e-19)
(42.9269 -0.798474 3.26159e-20)
(43.1911 -0.922229 -3.63825e-20)
(43.4922 -0.968226 0)
(43.8291 -1.03861 -2.84719e-19)
(44.2045 -1.10074 0)
(44.6246 -1.16439 0)
(45.0939 -1.23301 0)
(45.6149 -1.30792 -2.21663e-19)
(46.1832 -1.38627 7.72779e-19)
(46.7854 -1.45313 -6.6901e-19)
(47.4024 -1.48661 0)
(48.0224 -1.46866 -2.86173e-19)
(48.6634 -1.39874 -1.02819e-18)
(49.3524 -1.29822 -1.68856e-18)
(50.1017 -1.18517 -1.60252e-18)
(50.8944 -1.0626 1.29764e-18)
(51.7196 -0.927746 -1.61481e-18)
(52.5827 -0.775302 9.45384e-19)
(53.4649 -0.609718 2.42503e-18)
(54.3339 -0.423147 0)
(55.1936 -0.207035 1.80406e-18)
(56.0675 0.0245782 -4.37521e-18)
(56.9529 0.243772 -9.63509e-20)
(57.8671 0.417354 3.08073e-18)
(58.8388 0.609164 1.83592e-18)
(59.8584 0.904799 0)
(60.7745 1.15284 2.58667e-18)
(61.6242 1.38689 -3.00205e-18)
(62.2486 1.63077 6.74161e-18)
(62.1502 1.96438 0)
(60.8684 2.10998 -9.65778e-18)
(56.0249 2.16631 2.64662e-18)
(43.553 1.79825 -3.16532e-18)
(20.0583 0.596158 -3.53575e-18)
(-0.211888 0.504798 7.79178e-18)
(-3.97764 1.15835 1.29159e-20)
(41.2139 0.143248 3.97369e-20)
(40.2468 -0.241538 -6.4732e-20)
(42.1348 -0.0965937 1.15517e-20)
(40.5301 -0.337614 -1.77671e-19)
(42.0389 -0.269406 -8.66195e-21)
(40.8342 -0.445937 -1.97826e-21)
(42.0064 -0.431621 -2.07845e-20)
(41.2144 -0.566829 0)
(42.0249 -0.582337 -5.16003e-20)
(41.6343 -0.714761 4.79874e-20)
(42.141 -0.713375 2.72583e-21)
(42.0752 -0.891399 -8.70365e-21)
(42.3862 -0.867846 1.15348e-19)
(42.5323 -1.06106 5.09038e-21)
(42.7831 -1.08013 1.91952e-19)