/*--------------------------------*- C++ -*----------------------------------*\
| =========                 |                                                 |
| \\      /  F ield         | OpenFOAM: The Open Source CFD Toolbox           |
|  \\    /   O peration     | Version:  v1912                                 |
|   \\  /    A nd           | Website:  www.openfoam.com                      |
|    \\/     M anipulation  |                                                 |
\*---------------------------------------------------------------------------*/
FoamFile
{
    version     2.0;
    format      ascii;
    class       volScalarField;
    location    "0.41";
    object      p;
}
// * * * * * * * * * * * * * * * * * * * * * * * * * * * * * * * * * * * * * //

dimensions      [0 2 -2 0 0 0 0];


internalField   nonuniform List<scalar> 
6600
(
232.73
228.085
225.741
224.327
223.218
222.194
221.191
220.205
219.205
218.145
217
215.75
214.379
212.893
211.271
209.44
207.496
205.43
203.202
200.783
198.274
195.272
191.703
188.021
184.074
179.752
174.941
169.386
163.281
156.505
148.708
139.653
129.303
117.469
103.705
87.6124
68.7908
46.7065
20.7934
-9.50537
-44.8081
-85.843
-133.587
-188.983
-252.615
-325.824
-409.26
-501.427
-610.647
-732.505
229.465
224.565
222.659
220.931
219.325
217.824
216.401
215.028
213.663
212.194
210.617
208.954
207.124
205.13
202.966
200.6
197.903
195.033
191.931
188.449
184.677
180.838
176.323
171.246
165.694
159.562
152.922
145.437
136.946
127.55
117.083
105.208
91.6201
76.1721
58.483
38.0618
14.5409
-12.5641
-43.8737
-80.0937
-121.916
-169.872
-225.119
-288.615
-360.8
-443.275
-536.061
-637.962
-754.613
-884.619
224.939
219.805
218.272
216.241
214.242
212.413
210.682
208.93
207.159
205.268
203.195
200.945
198.533
195.915
193.046
189.918
186.514
182.756
178.693
174.31
169.313
163.898
158.118
151.654
144.534
136.584
127.747
118.133
107.318
95.2328
81.734
66.5569
49.4742
30.1896
8.32628
-16.6238
-45.1257
-77.6882
-114.819
-157.198
-205.733
-260.699
-323.573
-394.936
-475.453
-566.263
-667.734
-778.41
-899.1
-1029.12
219.583
214.127
212.828
210.422
208.277
206.242
204.223
202.087
199.801
197.382
194.782
191.936
188.843
185.489
181.889
177.894
173.532
168.798
163.573
157.865
151.749
144.995
137.577
129.43
120.499
110.733
99.811
87.6489
74.1807
59.2257
42.6032
23.9987
3.09574
-20.2888
-46.5459
-76.2892
-109.932
-148.111
-191.256
-240.015
-295.156
-357.365
-427.353
-506.022
-594.131
-692.483
-801.139
-917.937
-1040.47
-1167.38
213.537
207.786
206.73
203.914
201.703
199.443
197.096
194.611
191.883
188.938
185.767
182.356
178.615
174.495
169.967
165.081
159.724
153.926
147.644
140.654
132.897
124.453
115.216
105.159
94.1665
82.1379
68.9949
54.4239
38.294
20.3739
0.372688
-21.818
-46.6154
-74.3478
-105.323
-139.996
-178.905
-222.607
-271.636
-326.588
-388.184
-457.055
-533.719
-618.757
-713.008
-817.514
-931.977
-1053.24
-1176.32
-1299.26
206.78
200.921
200.102
196.931
194.61
192.131
189.379
186.499
183.406
180.069
176.412
172.387
167.975
163.156
157.781
151.837
145.351
138.23
130.526
122.254
113.243
103.19
92.0448
79.8235
66.5728
52.1262
36.281
18.9443
-0.189448
-21.2619
-44.5655
-70.4777
-99.3016
-131.314
-166.859
-206.454
-250.583
-299.678
-354.319
-415.056
-482.49
-557.209
-639.576
-730.152
-829.369
-938.073
-1056.2
-1180.65
-1303.83
-1421.62
199.476
193.662
192.919
189.256
186.808
184.109
181.118
177.854
174.354
170.531
166.345
161.702
156.559
150.865
144.632
137.758
130.218
121.983
112.858
102.768
91.9821
80.2713
67.4135
53.2042
37.6114
20.6499
2.15358
-18.1068
-40.3105
-64.6899
-91.531
-121.128
-153.875
-190.136
-230.301
-274.689
-323.713
-377.869
-437.591
-503.466
-575.961
-655.523
-742.473
-837.059
-939.785
-1051.53
-1172.41
-1299.14
-1421.46
-1531.54
191.702
186.023
185.314
181.093
178.688
175.545
172.253
168.621
164.673
160.272
155.39
150.012
144.063
137.516
130.278
122.296
113.484
103.951
93.6418
82.2781
69.7402
56.0689
41.2272
25.0786
7.37395
-12.099
-33.3837
-56.5922
-81.9424
-109.681
-140.123
-173.529
-210.147
-250.392
-294.622
-343.282
-396.776
-455.438
-519.708
-589.922
-666.593
-750.077
-840.614
-938.323
-1043.26
-1156.28
-1278.15
-1405.87
-1526.53
-1626.52
183.446
178.054
177.357
172.822
170.544
166.917
163.166
159.07
154.536
149.479
143.847
137.62
130.751
123.246
115.013
106.024
96.1437
85.1484
73.0897
60.0678
45.824
30.2695
13.3414
-4.99753
-24.8816
-46.605
-70.4399
-96.4573
-124.816
-155.815
-189.642
-226.586
-266.871
-310.831
-358.989
-411.637
-469.036
-531.538
-599.473
-673.267
-753.148
-839.431
-932.227
-1031.7
-1138.01
-1251.78
-1373.61
-1500.55
-1617.7
-1705.43
174.808
169.979
169.166
164.784
162.39
158.314
154.289
149.68
144.518
138.745
132.328
125.212
117.377
108.766
99.2955
88.9509
77.7288
65.5643
52.0747
37.3582
21.3921
3.95396
-15.0256
-35.6697
-58.0684
-82.2842
-108.596
-137.282
-168.553
-202.556
-239.562
-279.781
-323.496
-370.99
-422.431
-478.224
-538.804
-604.422
-675.31
-751.691
-833.907
-922.169
-1016.64
-1117.12
-1223.64
-1336.75
-1456.87
-1580.97
-1693.74
-1768.2
166.15
162.168
161.257
156.878
154.372
149.98
145.631
140.486
134.729
128.303
121.139
113.189
104.413
94.7778
84.2426
72.6454
59.8398
45.9673
30.9546
14.5072
-3.31314
-22.6135
-43.5736
-66.3269
-91.0501
-117.847
-146.831
-178.166
-212.077
-248.796
-288.615
-331.797
-378.455
-428.825
-483.314
-542.112
-605.379
-673.419
-746.515
-824.801
-908.441
-997.618
-1092.36
-1192.88
-1299.03
-1411.05
-1528.49
-1648.08
-1754.46
-1815.26
157.971
154.789
153.63
149.519
146.665
142.057
137.337
131.742
125.446
118.392
110.525
101.818
92.1357
81.4494
69.7039
56.9505
43.0263
27.6974
11.1071
-6.87353
-26.4908
-47.8228
-70.9137
-95.8866
-122.838
-151.939
-183.399
-217.378
-254.025
-293.494
-335.969
-381.67
-430.938
-484.007
-540.902
-601.8
-667.038
-736.79
-811.216
-890.594
-974.963
-1064.49
-1159.22
-1258.88
-1363.52
-1473.38
-1587.8
-1702.06
-1800.32
-1848.41
150.587
147.959
146.91
142.737
139.648
134.762
129.684
123.731
116.991
109.399
100.918
91.4798
81.025
69.5126
56.7752
42.7527
27.5194
10.9481
-7.20543
-26.8642
-48.0705
-71.0934
-96.0239
-123.021
-152.201
-183.611
-217.409
-253.715
-292.639
-334.444
-379.391
-427.629
-479.218
-534.281
-593.135
-656.009
-722.913
-794.021
-869.515
-949.353
-1033.76
-1122.72
-1216.3
-1314.57
-1417.16
-1524.14
-1634.76
-1743.13
-1832.64
-1869.78
144.378
142.195
141.042
137.012
133.746
128.629
123.236
116.904
109.667
101.552
92.5189
82.4106
71.2307
58.8862
45.403
30.5262
14.1968
-3.53401
-22.8219
-43.9348
-66.8532
-91.6117
-118.325
-147.124
-178.182
-211.628
-247.549
-286.164
-327.545
-371.714
-418.758
-468.885
-522.354
-579.388
-640.008
-704.171
-772.107
-843.889
-919.567
-999.382
-1083.25
-1171.3
-1263.36
-1359.37
-1459.36
-1563.22
-1669.69
-1772.65
-1854.42
-1881.19
139.646
137.883
136.586
132.558
129.205
123.973
118.364
111.737
104.202
95.6281
86.0074
75.3528
63.5777
50.5326
36.2153
20.5406
3.34682
-15.5081
-35.9612
-58.1218
-82.2497
-108.449
-136.767
-167.297
-200.148
-235.457
-273.355
-313.784
-356.915
-402.976
-452.124
-504.371
-559.687
-618.113
-679.815
-745.064
-813.84
-886.165
-962.081
-1041.51
-1124.53
-1211.03
-1301.12
-1394.52
-1491.18
-1590.72
-1691.58
-1788.1
-1862.65
-1883.52
136.775
135.067
133.725
129.763
126.267
120.913
115.175
108.258
100.441
91.6735
81.7344
70.6461
58.371
44.855
29.9307
13.5749
-4.27941
-23.8356
-45.29
-68.624
-93.8975
-121.284
-150.925
-182.906
-217.308
-254.173
-293.741
-336.174
-381.341
-429.222
-479.922
-533.582
-590.298
-650.169
-713.282
-779.434
-848.657
-921.062
-996.569
-1075.08
-1156.68
-1241.46
-1329.03
-1419.39
-1512.28
-1607.82
-1702.02
-1788.44
-1850.36
-1869.32
135.758
134.182
132.411
128.562
124.967
119.593
113.814
106.954
98.9613
89.9412
79.8907
68.6464
56.1221
42.2544
26.9301
10.0176
-8.53614
-28.7433
-50.7515
-74.8095
-101.022
-129.448
-160.206
-193.442
-229.294
-267.806
-308.883
-352.628
-399.26
-448.839
-501.286
-556.569
-614.76
-675.817
-739.566
-806.245
-875.939
-948.412
-1023.64
-1101.64
-1181.98
-1264.64
-1349.81
-1436.84
-1525.11
-1614.14
-1698.81
-1771.03
-1815.9
-1832.33
136.667
134.874
132.923
129.023
125.417
120.042
114.252
107.393
99.5613
90.6339
80.5648
69.3021
56.7647
42.819
27.4026
10.376
-8.44841
-29.2207
-51.8971
-76.5708
-103.437
-132.664
-164.338
-198.526
-235.368
-275.061
-317.772
-363.32
-411.563
-462.574
-516.484
-573.218
-632.573
-694.621
-759.597
-827.202
-897.205
-969.775
-1044.67
-1121.41
-1200.19
-1280.66
-1362.58
-1446.07
-1530.53
-1612.77
-1687.06
-1742.98
-1768.84
-1781.05
139.302
137.133
135.006
131.131
127.542
122.342
116.769
109.897
102.192
93.5194
83.6689
72.6127
60.2339
46.419
31.0389
14.0256
-4.70625
-25.3852
-48.2472
-73.3162
-100.686
-130.515
-162.972
-198.186
-236.153
-276.889
-320.514
-367.281
-417.15
-469.865
-525.23
-583.354
-644.318
-707.913
-773.75
-841.89
-912.46
-985.179
-1059.85
-1136.36
-1214.09
-1293.02
-1372.57
-1452.13
-1531.2
-1606.57
-1671.83
-1716.47
-1729.77
-1736
143.383
140.82
138.554
134.751
131.117
125.972
120.653
114.171
106.829
98.4745
88.9823
78.3544
66.4144
53.0475
38.1068
21.4058
2.78166
-17.7741
-40.5065
-65.5709
-93.1116
-123.242
-156.019
-191.71
-230.479
-272.439
-317.504
-365.612
-416.803
-471.066
-528.337
-588.282
-650.563
-715.171
-782.226
-851.653
-923.038
-996.235
-1071.25
-1147.49
-1224.44
-1301.52
-1379.03
-1456.61
-1531.87
-1600.54
-1657.97
-1695.15
-1708.49
-1708.52
148.656
145.528
143.273
139.62
135.993
131.217
126.088
119.893
113.02
105.163
96.2485
86.1913
74.8709
62.1094
47.8196
31.8695
13.9418
-6.12692
-28.491
-53.3223
-80.7743
-111.072
-144.288
-180.427
-219.607
-262.042
-307.935
-357.368
-410.219
-466.195
-525.062
-586.77
-651.135
-717.841
-786.689
-857.239
-929.579
-1003.78
-1079.2
-1155.61
-1232.75
-1310.3
-1387.3
-1462.18
-1534.49
-1599.1
-1648.3
-1674.64
-1687.18
-1685.51
154.897
151.07
148.875
145.319
141.725
137.304
132.553
126.88
120.595
113.361
105.175
95.9169
85.4376
73.536
60.027
44.8337
27.7753
8.58273
-12.9683
-37.104
-64.0383
-93.934
-127.074
-163.535
-203.324
-246.659
-293.523
-343.981
-398.112
-455.831
-516.826
-580.799
-647.346
-715.998
-786.414
-858.918
-933.105
-1008.35
-1085.01
-1162.86
-1240.94
-1318.49
-1395.34
-1471.4
-1541.34
-1601.61
-1643.78
-1657.17
-1662.99
-1664.62
161.389
157.166
154.957
151.592
148.238
144.182
139.822
134.665
128.93
122.346
114.96
106.727
97.3321
86.6174
74.3406
60.2768
44.2608
26.0742
5.4748
-17.7718
-43.9732
-73.307
-105.982
-142.216
-181.782
-225.769
-273.516
-325.204
-380.79
-440.332
-503.482
-569.628
-638.426
-709.704
-783.126
-857.861
-933.867
-1011.44
-1089.91
-1168.87
-1248.42
-1328.3
-1406.66
-1481.37
-1548.83
-1603.09
-1636.74
-1648.96
-1646.64
-1649.31
167.899
163.477
161.229
157.975
154.794
151.212
147.329
142.802
137.843
132.151
125.721
118.277
109.867
100.368
89.4804
76.9117
62.4078
45.7033
26.5105
4.54419
-20.4601
-48.9028
-80.9818
-116.828
-156.625
-200.664
-248.976
-301.913
-358.889
-419.841
-484.986
-553.949
-626.174
-700.623
-776.571
-854.059
-932.982
-1012.87
-1093.41
-1174.81
-1256.67
-1338.12
-1418.34
-1493.33
-1558.17
-1604.32
-1624.65
-1635.2
-1633.2
-1635.19
173.984
169.619
167.2
164.385
161.51
158.218
154.744
150.827
146.548
141.631
136.198
129.909
122.663
114.391
104.939
93.9781
81.2099
66.2902
48.8657
28.5104
4.99043
-22.0042
-52.9099
-87.97
-127.307
-171.258
-220.02
-273.922
-332.587
-395.682
-463.106
-534.671
-609.538
-687.187
-767.148
-848.52
-930.477
-1013.03
-1096.69
-1180.59
-1264.85
-1348.56
-1429.28
-1504.44
-1568.12
-1607.73
-1619.61
-1620.65
-1621.43
-1622.22
179.269
175.632
172.866
170.428
167.657
164.777
161.731
158.328
154.627
150.482
145.924
140.773
134.791
127.86
119.927
110.73
99.9046
87.0703
71.8259
53.6713
32.0811
6.81782
-22.512
-56.3477
-95.136
-138.934
-187.581
-242.086
-302.08
-367.104
-437.064
-511.571
-590.099
-671.947
-755.902
-840.773
-926.738
-1013.34
-1099.49
-1185.8
-1272.27
-1358.19
-1441.63
-1515.01
-1570.9
-1600.35
-1612.57
-1609.12
-1609.87
-1610.12
183.245
181.835
177.816
176.178
173.345
170.868
168.168
165.223
162.098
158.621
154.798
150.545
145.776
140.357
134.021
126.557
117.667
106.99
94.0777
78.4312
59.4227
36.4889
9.21621
-22.8187
-60.043
-102.938
-151.849
-206.714
-267.946
-335.116
-407.705
-485.6
-568.215
-654.057
-742.369
-832.721
-923.01
-1012.76
-1102.61
-1191.89
-1280.17
-1367.4
-1450.81
-1527.23
-1578.86
-1593.61
-1598.18
-1598.03
-1597.85
-1597.8
185.233
187.405
181.816
181.657
178.505
176.344
173.971
171.402
168.799
166.01
162.935
159.589
155.907
151.746
146.901
141.224
134.33
125.923
115.551
102.582
86.3952
66.2641
41.5287
11.694
-23.7934
-65.5262
-113.995
-168.504
-231.021
-300.372
-376.176
-457.576
-544.151
-635.133
-729.255
-824.455
-919.858
-1014.23
-1106.8
-1199.1
-1290.37
-1377.89
-1459.65
-1528.11
-1571.38
-1589.47
-1585.29
-1586.31
-1585.35
-1584.68
184.071
191.374
184.985
186.217
183.159
181.396
179.306
177.13
174.905
172.751
170.285
167.532
164.894
161.851
158.204
153.952
148.837
142.597
134.757
124.773
111.726
94.7656
73.2237
46.3185
13.2615
-26.6151
-73.7645
-128.715
-192.167
-263.309
-342.3
-428.411
-520.751
-617.343
-716.598
-817.982
-919.834
-1019.02
-1115.2
-1208.96
-1301.82
-1390.89
-1473.58
-1537.14
-1559.79
-1572.17
-1571.18
-1571.71
-1571.8
-1570.48
161.401
190.69
187.191
189.506
187.26
185.597
183.698
181.809
180.022
178.182
176.666
174.91
173.09
171.176
168.585
165.606
162.136
157.745
151.999
144.483
134.301
120.756
102.674
78.8473
48.6124
10.5746
-35.4754
-89.0405
-153.023
-227.124
-309.566
-400.767
-498.685
-601.919
-708.801
-817.595
-926.166
-1031.1
-1132.07
-1226.96
-1315.49
-1397.03
-1468.77
-1521.87
-1551.73
-1549.51
-1553.07
-1554.93
-1555.23
-1555.34
354.276
350.049
348.229
347.045
346.361
346.322
346.571
347
347.759
348.914
350.439
352.393
354.836
357.592
360.742
364.316
368.282
372.589
377.251
382.36
387.835
393.679
399.845
406.272
413.057
420.114
427.389
434.584
441.973
449.296
456.294
462.867
468.878
473.945
477.782
480.256
481.057
479.78
476.066
469.354
458.853
444.098
424.524
399.233
367.502
328.669
282.123
228.427
161.481
90.7449
351.97
348.187
346.937
345.804
345.199
345.157
345.416
345.875
346.619
347.762
349.287
351.033
353.209
355.76
358.611
361.928
365.746
369.867
374.211
378.837
383.776
389.05
394.595
400.288
406.057
412.022
418.183
424.167
430.205
436.116
441.606
446.431
450.387
453.22
454.471
454.06
451.691
446.925
439.406
428.634
413.842
394.404
369.748
339.092
301.625
256.512
203.369
142.792
70.7907
-4.67995
349.216
345.82
345.279
344.395
343.889
343.787
344.002
344.515
345.382
346.553
348.17
350.065
352.143
354.584
357.352
360.348
363.733
367.588
371.774
376.119
380.578
385.179
390.033
395.104
400.196
405.188
410.236
415.236
419.682
423.679
427.132
429.894
431.627
431.943
430.53
427.137
421.478
413.077
401.554
386.543
367.236
342.957
313.069
276.914
233.835
183.022
123.983
57.5774
-16.7543
-91.7814
346.301
343.151
343.25
342.533
342.223
342.179
342.362
342.864
343.769
345.031
346.54
348.441
350.582
352.951
355.697
358.712
361.86
365.251
368.931
372.972
377.197
381.392
385.504
389.648
393.928
398.082
401.871
405.433
408.443
410.728
412.132
412.548
411.71
409.389
405.189
398.75
389.711
377.649
362.062
342.557
318.653
289.696
255.022
214.006
166.037
110.318
46.6115
-23.6382
-98.8034
-170.787
343.331
340.42
340.858
339.986
339.843
339.889
340.17
340.728
341.597
342.851
344.385
346.211
348.331
350.661
353.148
355.886
358.882
362.053
365.268
368.611
372.182
376.023
379.782
383.139
386.337
389.381
392.104
394.141
395.533
395.875
395.172
393.33
389.969
384.858
377.659
368.091
355.721
340.044
320.693
297.241
269.077
235.705
196.756
151.721
100.031
40.9782
-25.5554
-97.7076
-172.673
-240.343
340.324
337.536
338.162
336.939
336.975
337.046
337.346
337.937
338.841
339.948
341.318
342.968
344.933
347.164
349.567
352.057
354.621
357.326
360.24
363.143
365.934
368.762
371.702
374.358
376.579
378.268
379.328
380.041
379.927
378.614
375.89
371.621
365.771
357.941
347.913
335.27
319.666
300.685
277.826
250.774
219.187
182.583
140.519
92.6156
38.4969
-22.4042
-90.1613
-162.851
-236.314
-298.138
337.161
334.315
334.934
333.596
333.707
333.753
334.058
334.606
335.437
336.542
337.823
339.204
340.767
342.531
344.516
346.717
348.996
351.208
353.405
355.637
357.893
359.868
361.617
363.174
364.33
365.048
364.78
363.65
361.458
358.164
353.586
347.324
339.066
328.758
316.083
300.654
282.146
260.265
234.726
205.026
170.704
131.603
87.5933
38.2788
-16.7082
-77.7922
-145.211
-217.077
-287.639
-341.867
333.469
330.637
331.152
329.871
330.006
329.999
330.298
330.853
331.55
332.414
333.506
334.784
336.135
337.54
338.98
340.509
342.165
343.924
345.6
347.01
348.258
349.267
349.919
350.131
349.777
348.903
347.333
344.687
341.012
335.914
329.257
320.912
310.654
298.201
283.197
265.401
244.618
220.476
192.653
161.045
125.353
85.1449
40.2228
-9.48052
-64.2217
-124.438
-190.107
-259.265
-325.213
-370.13
329.309
326.541
326.913
325.524
325.714
325.651
325.881
326.344
327.063
327.865
328.674
329.601
330.62
331.711
332.81
333.825
334.722
335.541
336.362
337.093
337.479
337.417
336.93
335.987
334.431
332.092
328.884
324.513
318.926
312.08
303.74
293.583
281.412
266.968
250.049
230.43
207.902
182.271
153.295
120.615
84.0668
43.6565
-0.790829
-49.5433
-102.808
-160.983
-223.79
-288.91
-348.599
-382.624
324.397
321.856
322.079
320.677
320.848
320.659
320.892
321.197
321.612
322.203
322.908
323.629
324.326
324.985
325.623
326.192
326.653
326.86
326.705
326.289
325.626
324.57
322.87
320.586
317.671
313.916
309.32
303.725
296.739
288.167
278.013
266.214
252.428
236.459
218.11
197.221
173.637
147.083
117.412
84.6326
48.5155
8.80565
-34.5194
-81.4697
-132.235
-187.324
-246.459
-306.331
-358.375
-382.347
318.61
316.315
316.365
315.269
315.391
315.037
315.132
315.431
315.69
315.906
316.19
316.536
316.903
317.187
317.315
317.265
317.019
316.559
315.851
314.702
313.017
310.905
308.276
304.963
300.845
295.824
289.705
282.303
273.882
264.1
252.676
239.468
224.392
207.281
187.975
166.331
142.211
115.544
86.1656
53.8652
18.6822
-19.339
-60.365
-104.555
-151.91
-202.637
-257.109
-311.825
-357.463
-373.92
312.022
310.007
309.997
309.136
309.282
308.946
308.894
308.854
308.889
308.964
308.948
308.816
308.602
308.329
307.944
307.412
306.634
305.437
303.825
301.88
299.411
296.37
292.686
288.263
282.968
276.803
269.709
261.475
251.797
240.73
228.191
214.01
198.086
180.258
160.442
138.581
114.578
88.2132
59.5037
28.5211
-4.87553
-40.6884
-78.8567
-119.392
-162.27
-208.061
-256.407
-304.839
-345.085
-359.41
304.641
303.231
303.316
302.537
302.574
302.189
302.215
302.034
301.745
301.443
301.106
300.649
299.979
299.068
297.903
296.484
294.891
293.138
290.935
288.211
284.953
281.198
276.798
271.551
265.501
258.341
249.845
240.504
230.047
218.267
205.047
190.215
173.694
155.511
135.659
113.986
90.4339
65.0963
37.8681
8.67406
-22.3878
-55.2376
-89.7992
-126.066
-163.869
-203.575
-244.121
-283.163
-314.094
-329.091
296.952
295.866
296.077
295.473
295.587
295.119
294.925
294.667
294.293
293.723
292.956
292.022
290.92
289.607
288.02
286.052
283.559
280.707
277.608
274.129
270.099
265.377
260.052
254.019
247.084
239.405
230.849
220.836
209.533
197.041
183.225
168.084
151.507
133.42
113.821
92.7788
70.2364
46.0543
20.4241
-6.53136
-34.7995
-64.2901
-94.8793
-126.093
-158.281
-190.855
-222.076
-248.103
-263.92
-276.759
288.648
288.174
288.461
287.943
288.137
287.807
287.597
287.094
286.494
285.758
284.762
283.456
281.833
279.881
277.635
275.147
272.301
268.876
264.894
260.46
255.656
250.263
244.132
237.398
229.885
221.256
211.777
201.43
189.973
177.225
163.243
147.946
131.366
113.63
94.657
74.3884
52.9797
30.5517
7.04713
-17.4007
-42.7037
-68.6256
-94.8495
-121.183
-147.235
-171.984
-193.936
-209.474
-214.334
-220.793
280.058
280.161
280.69
280.473
280.63
280.228
280.116
279.579
278.771
277.722
276.428
274.869
273
270.745
268.022
264.774
261.144
257.15
252.674
247.559
241.819
235.551
228.707
221.086
212.939
204.291
194.49
183.582
171.718
158.827
144.826
129.716
113.537
96.2793
78.0157
58.8774
38.8519
17.9725
-3.59219
-25.6305
-47.8284
-70.2629
-92.5738
-114.281
-134.542
-152.246
-165.665
-173.736
-180.349
-183.231
271.464
272.246
272.914
273.008
273.54
273.131
272.866
272.256
271.408
270.165
268.549
266.555
264.178
261.447
258.374
254.848
250.731
246.04
240.886
235.294
229.139
222.246
214.773
206.703
197.758
188.072
177.866
166.928
154.961
142.016
128.064
113.123
97.2639
80.6085
63.1876
45.0401
26.3444
7.22664
-12.2084
-31.9343
-51.8711
-71.4841
-90.1829
-107.766
-123.463
-135.748
-143.446
-146.3
-152.658
-155.683
263.094
264.632
265.526
265.726
266.384
266.326
266.156
265.441
264.505
263.165
261.396
259.188
256.488
253.236
249.454
245.258
240.661
235.542
229.79
223.467
216.694
209.371
201.377
192.782
183.754
173.913
163.228
151.846
139.79
126.916
113.142
98.486
83.0318
66.8311
50.081
32.9732
15.5214
-2.23305
-20.1538
-38.0523
-55.7891
-73.0267
-89.3143
-104.127
-116.465
-124.126
-126.553
-129.919
-132.577
-136.526
254.832
257.066
258.413
259.106
259.786
259.966
260.226
259.639
258.621
257.127
255.094
252.51
249.445
245.898
241.752
236.952
231.598
225.81
219.566
212.793
205.467
197.65
189.339
180.374
170.675
160.5
149.811
138.355
126.167
113.285
99.6846
85.2292
69.9856
54.1855
38.001
21.5013
4.87336
-11.6971
-28.1492
-44.6604
-61.1331
-76.9861
-91.3805
-104.103
-114.028
-119.266
-119.82
-122.076
-123.488
-125.829
246.637
249.745
251.471
252.917
254.226
254.452
254.915
254.626
253.775
252.301
250.249
247.475
243.951
239.804
235.113
229.846
223.923
217.383
210.327
202.848
194.911
186.503
177.624
168.436
158.807
148.468
137.494
126.047
114.025
101.281
87.7596
73.5112
58.4676
42.7133
26.5652
10.515
-5.33882
-21.1857
-36.9209
-52.3542
-67.3334
-81.6337
-95.0347
-106.499
-113.162
-113.835
-116.884
-117.646
-119.231
-119.941
238.397
242.468
244.903
246.932
248.921
249.668
250.309
250.349
249.822
248.397
246.234
243.432
239.832
235.371
230.133
224.23
217.71
210.551
202.776
194.532
185.905
176.865
167.396
157.495
147.303
136.848
125.923
114.495
102.555
90.0352
76.8245
62.7039
47.7246
32.091
15.9304
-0.395389
-16.1965
-31.2419
-46.0978
-60.7248
-74.5594
-87.4923
-99.0287
-107.867
-112.507
-113.228
-113.301
-115.299
-117.072
-117.422
230.355
235.217
238.186
240.795
243.529
245.281
246.53
247.04
246.899
245.826
243.744
240.763
236.982
232.338
226.775
220.326
213.106
205.207
196.644
187.487
177.949
168.063
157.821
147.442
136.773
125.833
114.733
103.366
91.6011
79.4072
66.6501
52.9884
38.2146
22.2254
5.44074
-11.4622
-27.744
-42.7803
-56.8226
-70.6705
-83.4243
-93.6991
-101.646
-106.978
-110.153
-113.565
-114.039
-116.262
-117.756
-117.805
221.535
227.797
231.38
235.036
238.707
241.43
243.381
244.333
244.556
243.98
242.422
239.675
235.816
230.942
225.067
218.208
210.387
201.739
192.37
182.318
171.756
160.864
149.624
138.147
126.759
115.356
103.815
92.2928
80.6688
68.8435
56.5049
43.3465
29.0666
13.3827
-3.86292
-22.0628
-39.8798
-55.6427
-69.0357
-81.1093
-92.7185
-102.119
-105.074
-105.207
-109.146
-112.276
-115.251
-118.235
-120.204
-120.211
211.837
219.872
223.787
228.748
233.606
237.55
240.613
242.391
243.258
243.118
241.95
239.618
236.004
231.095
224.973
217.688
209.295
199.845
189.537
178.432
166.746
154.662
142.32
129.778
117.169
104.786
92.7775
81.0639
69.5962
58.1978
46.5667
34.3885
20.9811
5.48524
-12.2692
-31.7659
-51.7996
-70.0224
-83.9614
-94.3733
-104.109
-111.052
-111.357
-111.736
-112.489
-115.79
-118.747
-121.09
-122.881
-123.351
200.947
211.392
215.681
222.426
228.105
232.874
237.222
240.437
242.466
243.179
242.616
240.738
237.456
232.665
226.47
218.852
209.925
199.766
188.522
176.362
163.422
149.931
135.98
121.999
108.075
94.6479
81.8544
69.5974
57.9772
46.7937
35.8563
24.6705
12.6246
-1.33959
-18.7756
-39.8032
-63.133
-86.2506
-103.785
-112.922
-113.807
-114.159
-117.226
-119.352
-121.077
-123.022
-124.238
-125.05
-125.689
-125.999
188.488
201.778
205.808
214.792
222.212
228.41
234.122
238.576
241.799
243.631
243.977
242.734
239.888
235.379
229.178
221.351
211.925
201.066
188.822
175.507
161.233
146.205
130.666
114.854
99.4706
84.5655
70.5357
57.5315
45.5806
34.4779
24.3954
14.6755
4.46213
-7.68343
-23.7355
-44.9819
-70.7285
-98.8624
-124.376
-137.691
-129.602
-114.899
-119.025
-125.882
-130.289
-131.269
-130.647
-129.6
-129.08
-128.982
173.807
191.035
195.145
206.101
214.422
222.43
229.986
236.108
240.933
244.223
245.784
245.511
243.339
239.262
233.205
225.307
215.561
204.072
191.011
176.437
160.694
143.817
126.401
108.642
91.2325
74.5779
59.013
44.6886
31.8836
20.8302
11.4573
3.21492
-4.62978
-13.8036
-26.7006
-46.3373
-73.2125
-107.352
-147.225
-168.162
-151.978
-130.554
-125.825
-141.27
-143
-142.431
-139.946
-136.539
-134.313
-133.321
157.112
178.627
182.516
196.256
205.857
215.784
225.25
233.262
239.801
244.627
247.591
248.558
247.32
243.738
237.966
230.173
220.316
208.192
194.303
178.444
161.126
142.722
123.282
103.383
83.5543
64.5167
46.6593
30.7153
16.8611
5.51594
-3.38297
-9.93528
-14.955
-19.9697
-28.7691
-43.1153
-68.153
-107.416
-156.126
-192.441
-181.725
-168.423
-158.609
-168.657
-170.719
-166.069
-159.099
-151.828
-146.222
-143.094
136.325
165.381
168.925
184.756
195.868
207.859
219.111
229.367
238.176
244.702
249.092
251.352
251.467
248.618
243.387
236.009
226.278
213.919
199.073
182.137
162.787
142.442
121.11
98.8581
76.3268
54.5909
34.3724
15.9146
0.29234
-11.8873
-20.5166
-25.8002
-27.8252
-27.968
-27.99
-33.6856
-56.5676
-101.205
-157.706
-196.235
-207.758
-203.317
-203.462
-218.841
-225.878
-218.669
-202.559
-185.839
-174.79
-168.758
98.3095
143.306
155.837
172.584
185.052
198.907
212.466
224.849
235.457
243.542
249.798
253.547
254.543
253.075
248.812
241.628
231.918
219.425
203.496
185.54
165.151
142.417
119.255
94.686
69.2067
44.2053
21.12
-0.0896118
-18.5828
-31.6391
-39.7438
-44.9102
-45.534
-38.5439
-27.6517
-19.7152
-27.5542
-62.3714
-114.867
-152.63
-206.656
-229.46
-256.379
-286.665
-301.477
-293.665
-269.81
-242.725
-223.877
-214.412
92.6227
127.856
145.609
161.393
175.978
190.86
205.506
220.17
233.785
244.735
252.518
258.232
260.383
259.562
255.387
247.918
237.488
224.04
207.24
187.44
165.638
140.569
114.215
86.854
57.7019
28.3824
0.68788
-23.8985
-45.3667
-61.1889
-69.6477
-70.6204
-67.1322
-57.5177
-38.0051
-13.9962
-3.39454
-27.8186
-75.6063
-123.948
-184.967
-255.601
-325.29
-378.559
-397.974
-384.175
-347.82
-308.811
-283.341
-271.772
102.008
125.541
143.308
159.176
175.42
191.973
208.4
223.866
236.671
248.849
258.188
263.642
265.105
263.003
257.839
249.171
236.751
220.929
202.123
180.044
155.273
127.907
97.7163
66.0256
32.6523
-0.788247
-31.7263
-60.2982
-85.2354
-100.459
-105.203
-103.351
-93.8628
-73.495
-37.0774
3.70265
25.7104
12.8334
-8.88897
-79.9896
-179.488
-295.898
-396.976
-470.421
-499.008
-474.594
-420.999
-371.113
-339.545
-329.641
107.714
127.346
144.543
162.111
181.784
200.057
216.991
233.353
247.056
257.588
264.83
268.499
268.791
264.598
256.612
245.132
229.817
211.08
188.649
163.029
134.18
102.633
68.6107
32.0379
-5.59023
-42.855
-78.8759
-110.913
-134.126
-147.356
-152.084
-143.792
-118.072
-73.5992
-21.2024
20.4888
44.122
54.5367
-2.13442
-93.5811
-216.383
-318.031
-402.172
-463.812
-490.716
-477.104
-438.032
-399.835
-376.081
-367.969
109.553
126.942
146.094
166.586
187.015
207.671
228.545
245.541
257.343
266.508
273.229
274.264
270.657
263.504
252.432
236.81
217.205
193.86
167.408
136.97
103.517
66.7369
27.0282
-14.4404
-57.911
-101.508
-140.068
-171.753
-197.174
-214.625
-209.383
-182.967
-130.645
-72.3933
-18.722
32.2795
51.3075
2.11443
-74.7259
-158.879
-239.283
-312.685
-370.757
-408.954
-422.409
-418.952
-406.789
-391.443
-383.827
-383.109
105.072
123.117
143.226
168.662
193.685
217.152
237.221
254.61
269.841
278.284
281.505
280.245
272.593
260.561
244.623
224.166
199.426
170.511
138.585
102.826
62.6057
19.8077
-26.1183
-75.9535
-126.682
-174.834
-219.19
-257.338
-283.788
-289.5
-271.449
-225.698
-164.887
-84.1976
-23.8243
-17.447
-40.7615
-87.0767
-144.633
-205.023
-259.909
-305.532
-337.205
-355.837
-364.051
-367.178
-369.67
-375.279
-383.415
-390.472
94.2669
111.889
139.525
170.871
195.538
220.536
246.706
264.777
277.327
283.832
285.388
281.027
270.567
255.393
234.741
208.582
178.093
143.709
103.841
60.839
14.675
-36.9721
-93.437
-151.937
-211.701
-271.764
-327.158
-368.514
-387.486
-375.485
-339.583
-275.042
-196.066
-142.622
-117.327
-117.216
-134.942
-169.472
-210.868
-246.974
-278.96
-303.538
-320.764
-331.753
-338.87
-347.478
-361.793
-381.587
-396.765
-405.036
73.8387
94.3546
126.305
160.676
192.308
218.741
246.334
269.268
282.406
285.922
283.095
273.518
259.189
239.878
215.635
185.85
149.962
110.146
66.2625
14.5653
-43.409
-105.062
-172.8
-247.369
-324.535
-398.527
-459.385
-500.288
-508.346
-477.005
-406.967
-338.406
-283.581
-234.393
-214.016
-216.397
-227.695
-245.345
-275.734
-296.403
-312.517
-324.955
-334.979
-347.242
-361.279
-378.573
-392.836
-414.777
-428.934
-434.191
29.87
53.6132
98.5423
133.438
174.027
213.981
244.422
264.016
273.111
274.104
268.883
256.576
239.301
215.399
185.133
150.147
111.012
65.4312
13.1157
-43.8982
-109.305
-186.572
-274.328
-373.23
-468.849
-548.673
-617.092
-655.474
-637.826
-569.593
-493.893
-435.59
-383.441
-334.59
-308.99
-307.089
-316.075
-327.817
-345.815
-361.517
-373.138
-381.918
-389.651
-400.904
-417.414
-437.01
-456.604
-473.337
-484.38
-487.835
-44.141
-29.5534
17.3504
74.1202
126.23
182.64
218.369
233.037
237.441
237.686
230.584
217.449
198.376
171.567
139.008
100.609
56.7773
8.07965
-48.8649
-117.885
-197.055
-290.669
-407.303
-530.1
-634.929
-726.932
-795.223
-806.662
-758.187
-674.382
-586.78
-524.283
-480.27
-445.037
-416.488
-418.892
-431.645
-443.642
-454.528
-465.346
-473.524
-479.976
-486.06
-493.364
-503.56
-517.405
-533.575
-548.397
-559.789
-565.103
-260.191
-270.512
-235.301
-101.111
22.7672
107.347
151.322
169.716
175.332
171.885
157.782
142.755
127.154
104.177
71.6769
33.0362
-10.8725
-65.7852
-129.38
-203.559
-300.552
-423.812
-569.061
-709.049
-831.121
-918.491
-948.794
-933.744
-881.049
-782.292
-678.702
-612.81
-583.375
-572.89
-567.704
-573.195
-588.886
-607.721
-621.043
-627.731
-627.371
-622.728
-619.008
-618.819
-622.142
-625.421
-633.048
-643.792
-655.514
-662.924
-644.655
-727.066
-577.991
-334.424
-137.087