/*--------------------------------*- C++ -*----------------------------------*\
| =========                 |                                                 |
| \\      /  F ield         | OpenFOAM: The Open Source CFD Toolbox           |
|  \\    /   O peration     | Version:  v1912                                 |
|   \\  /    A nd           | Website:  www.openfoam.com                      |
|    \\/     M anipulation  |                                                 |
\*---------------------------------------------------------------------------*/
FoamFile
{
    version     2.0;
    format      ascii;
    class       surfaceScalarField;
    location    "0.41";
    object      phi;
}
// * * * * * * * * * * * * * * * * * * * * * * * * * * * * * * * * * * * * * //

dimensions      [0 3 -1 0 0 0 0];
oriented        oriented;


internalField   nonuniform List<scalar> 
13060
(
0.00572135
0.988492
-0.994214
0.00779991
0.945544
-0.947622
0.00928526
0.899967
-0.901452
0.0107367
0.856426
-0.857877
0.012154
0.81472
-0.816138
0.0136279
0.775135
-0.776608
0.0153203
0.737226
-0.738919
0.0170292
0.701237
-0.702946
0.0187652
0.666789
-0.668525
0.0204084
0.633914
-0.635557
0.0218489
0.602579
-0.60402
0.0230895
0.57273
-0.573971
0.0241199
0.544372
-0.545402
0.0248934
0.517593
-0.518366
0.0253977
0.492125
-0.492629
0.0257959
0.468032
-0.46843
0.0261866
0.445126
-0.445517
0.0264349
0.423608
-0.423856
0.0263974
0.403289
-0.403252
0.0261775
0.383937
-0.383718
0.0255622
0.365722
-0.365107
0.024748
0.348414
-0.3476
0.0239752
0.331874
-0.331102
0.0234536
0.316129
-0.315607
0.022972
0.301508
-0.301026
0.0223414
0.287742
-0.287111
0.0215756
0.274574
-0.273808
0.0207869
0.262057
-0.261268
0.0200087
0.250214
-0.249435
0.0191647
0.239191
-0.238347
0.0182156
0.228842
-0.227893
0.0172608
0.218987
-0.218032
0.0163372
0.209696
-0.208772
0.0153827
0.200982
-0.200028
0.0143589
0.192753
-0.191729
0.0132284
0.18497
-0.183839
0.0120079
0.177638
-0.176418
0.0107544
0.170773
-0.169519
0.00949352
0.164222
-0.162961
0.00822627
0.158047
-0.15678
0.00695204
0.15227
-0.150996
0.00568487
0.146746
-0.145479
0.00444064
0.141437
-0.140193
0.00326562
0.136427
-0.135252
0.00214754
0.131532
-0.130414
0.00111447
0.127036
-0.126002
0.000116762
0.122231
-0.121234
-0.00116662
0.118703
-0.117419
-0.00149867
0.110203
-0.109871
0.0801099
-0.0816086
0.00584189
0.98265
0.00734002
0.944045
0.00853784
0.898769
0.00986501
0.855099
0.0111331
0.813452
0.0124921
0.773776
0.0139201
0.735798
0.0153628
0.699795
0.0167086
0.665443
0.0179735
0.632649
0.0191079
0.601445
0.0200117
0.571826
0.0206967
0.543687
0.021242
0.517048
0.0215982
0.491768
0.0216812
0.467949
0.0215273
0.44528
0.0213302
0.423805
0.0210635
0.403556
0.0208647
0.384136
0.0208199
0.365767
0.0207118
0.348522
0.0202766
0.33231
0.0196538
0.316752
0.0190153
0.302146
0.0183663
0.288391
0.0176505
0.27529
0.0168727
0.262835
0.016002
0.251084
0.0151309
0.240063
0.0142352
0.229738
0.0132292
0.219993
0.0121241
0.210801
0.010995
0.202111
0.00985729
0.19389
0.00872592
0.186101
0.0076505
0.178714
0.00660233
0.171821
0.00550407
0.16532
0.00441263
0.159138
0.00335323
0.153329
0.00236226
0.147737
0.0014087
0.142391
0.000486051
0.13735
-0.000410671
0.132428
-0.00123631
0.127861
-0.00204893
0.123044
-0.00242965
0.119083
-0.00213438
0.109908
0.0779755
0.00572607
0.976924
0.00711174
0.94266
0.00819474
0.897686
0.00914341
0.85415
0.00988211
0.812714
0.0109715
0.772686
0.0122984
0.734471
0.0136734
0.69842
0.0148844
0.664232
0.0158923
0.631641
0.0167156
0.600622
0.0173902
0.571152
0.0178583
0.543219
0.018066
0.51684
0.0181527
0.491682
0.0182966
0.467805
0.0183513
0.445226
0.0182202
0.423936
0.0178919
0.403885
0.017227
0.384801
0.0163104
0.366683
0.0153857
0.349447
0.0147574
0.332938
0.014216
0.317293
0.0136449
0.302717
0.0129582
0.289078
0.0121603
0.276087
0.011388
0.263607
0.0105953
0.251877
0.00971092
0.240947
0.00880021
0.230649
0.00797448
0.220819
0.00719197
0.211584
0.00634398
0.202959
0.00545829
0.194776
0.00452877
0.187031
0.00355478
0.179688
0.0025956
0.17278
0.00170155
0.166214
0.000859645
0.15998
6.95985e-05
0.154119
-0.000753777
0.148561
-0.00149553
0.143132
-0.00209148
0.137946
-0.00262588
0.132963
-0.003091
0.128326
-0.00352042
0.123473
-0.00335319
0.118916
-0.00251217
0.109067
0.0754634
0.00519814
0.971726
0.00613574
0.941722
0.00691099
0.896911
0.00776572
0.853295
0.00876488
0.811715
0.0098102
0.771641
0.0107523
0.733529
0.0115583
0.697614
0.0122538
0.663536
0.0128524
0.631043
0.0132472
0.600227
0.0134689
0.57093
0.0135762
0.543112
0.0136372
0.516779
0.0135085
0.49181
0.0131462
0.468167
0.0127502
0.445622
0.0124245
0.424262
0.0121366
0.404173
0.0119802
0.384958
0.0119182
0.366745
0.0116065
0.349758
0.0110004
0.333544
0.010316
0.317978
0.00967186
0.303362
0.00902878
0.289721
0.00831936
0.276797
0.00749686
0.26443
0.00668986
0.252684
0.00591329
0.241723
0.00503468
0.231527
0.0040449
0.221808
0.00302822
0.2126
0.00209128
0.203896
0.00119422
0.195673
0.000330838
0.187894
-0.000492652
0.180511
-0.00128554
0.173573
-0.00207244
0.167001
-0.00280472
0.160712
-0.00344189
0.154757
-0.00397354
0.149092
-0.00444326
0.143602
-0.0048237
0.138326
-0.00503639
0.133175
-0.00504019
0.12833
-0.00496424
0.123397
-0.0043863
0.118338
-0.00303864
0.107719
0.0724247
0.00493367
0.966793
0.00570912
0.940947
0.00622196
0.896398
0.00668635
0.852831
0.00749613
0.810905
0.00838885
0.770748
0.00911755
0.732801
0.00977163
0.69696
0.0102002
0.663108
0.0105123
0.630731
0.0107293
0.60001
0.0108382
0.570821
0.0107442
0.543206
0.0105203
0.517003
0.0103176
0.492013
0.0101481
0.468337
0.00990101
0.445869
0.00949212
0.42467
0.00889438
0.40477
0.00798643
0.385865
0.0069663
0.367766
0.00623793
0.350487
0.0056521
0.33413
0.0050649
0.318565
0.00446172
0.303965
0.0038049
0.290378
0.003147
0.277455
0.0023931
0.265184
0.0015522
0.253525
0.000693992
0.242582
-7.26892e-05
0.232294
-0.000783105
0.222519
-0.00146532
0.213282
-0.00221021
0.204641
-0.00295883
0.196422
-0.00367971
0.188615
-0.00438921
0.181221
-0.00506209
0.174246
-0.0056507
0.16759
-0.00614989
0.161212
-0.00655828
0.155165
-0.00683702
0.149371
-0.0069703
0.143735
-0.00695638
0.138312
-0.00684929
0.133068
-0.00657618
0.128057
-0.00622633
0.123048
-0.00535418
0.117466
-0.00359731
0.105962
0.0688274
0.00464802
0.962145
0.0049179
0.940677
0.00512459
0.896191
0.00566999
0.852286
0.00635839
0.810216
0.00687231
0.770234
0.00705524
0.732618
0.00714763
0.696867
0.00725398
0.663001
0.00722358
0.630761
0.00705665
0.600177
0.00683096
0.571047
0.00657819
0.543458
0.00625061
0.51733
0.0057372
0.492526
0.0051278
0.468946
0.00460406
0.446392
0.00419009
0.425084
0.00398572
0.404975
0.00393706
0.385914
0.00371326
0.367989
0.00316172
0.351038
0.00241296
0.334879
0.00164553
0.319332
0.000971739
0.304639
0.000300653
0.291049
-0.000437696
0.278193
-0.00114751
0.265893
-0.0018173
0.254195
-0.00248055
0.243245
-0.00329369
0.233107
-0.00424565
0.223471
-0.00518395
0.214221
-0.00599594
0.205453
-0.00671887
0.197145
-0.00738082
0.189277
-0.00795308
0.181793
-0.00841662
0.174709
-0.00881154
0.167985
-0.00912704
0.161527
-0.00931355
0.155351
-0.00938971
0.149447
-0.00936259
0.143708
-0.00916729
0.138117
-0.008742
0.132643
-0.00815211
0.127467
-0.00753441
0.12243
-0.00636038
0.116292
-0.00412108
0.103723
0.0647063
0.0044509
0.957694
0.0042946
0.940833
0.00422392
0.896262
0.00448159
0.852028
0.00481032
0.809888
0.00496201
0.770083
0.00503229
0.732547
0.00492865
0.696971
0.00483227
0.663098
0.00472596
0.630867
0.004593
0.60031
0.00434034
0.571299
0.00397575
0.543823
0.00360763
0.517699
0.00327951
0.492855
0.00291107
0.469315
0.00241357
0.44689
0.00173895
0.425759
0.0008681
0.405846
-8.99755e-05
0.386872
-0.000882463
0.368782
-0.00141629
0.351572
-0.00195642
0.335419
-0.00267145
0.320047
-0.00340206
0.305369
-0.0040633
0.29171
-0.00476323
0.278893
-0.00556916
0.266699
-0.00646418
0.25509
-0.00734731
0.244128
-0.00804516
0.233805
-0.00855758
0.223983
-0.00904847
0.214712
-0.00960184
0.206006
-0.0101684
0.197711
-0.010671
0.189779
-0.0110878
0.18221
-0.0114307
0.175052
-0.011675
0.168229
-0.0117907
0.161643
-0.0117854
0.155346
-0.0116314
0.149293
-0.0113258
0.143403
-0.0109091
0.1377
-0.0104132
0.132147
-0.00973774
0.126792
-0.00886823
0.12156
-0.00735457
0.114778
-0.00461764
0.100986
0.0600887
0.00399763
0.953696
0.00355279
0.941278
0.0033458
0.896469
0.0032256
0.852148
0.00303923
0.810074
0.00266223
0.77046
0.00228085
0.732929
0.00188894
0.697363
0.00148444
0.663502
0.001028
0.631324
0.000591858
0.600746
0.000158703
0.571733
-0.00025862
0.54424
-0.000742451
0.518182
-0.00130671
0.493419
-0.0018487
0.469856
-0.00232542
0.447367
-0.00256884
0.426002
-0.00268854
0.405965
-0.00290385
0.387088
-0.00338673
0.369265
-0.00402737
0.352213
-0.00467613
0.336068
-0.00536229
0.320733
-0.00615131
0.306158
-0.00694056
0.292499
-0.00764821
0.279601
-0.00829302
0.267344
-0.00884674
0.255644
-0.0093802
0.244661
-0.0100512
0.234476
-0.0108767
0.224809
-0.0116772
0.215512
-0.012332
0.206661
-0.0128452
0.198225
-0.0132617
0.190196
-0.0136079
0.182556
-0.013839
0.175284
-0.0139381
0.168328
-0.0139333
0.161638
-0.0137993
0.155212
-0.0135384
0.149032
-0.0131491
0.143013
-0.0125797
0.137131
-0.0118525
0.13142
-0.010999
0.125938
-0.00995385
0.120515
-0.008236
0.113061
-0.00504425
0.0977942
0.0550444
0.00373053
0.949966
0.00292173
0.942087
0.00225667
0.897134
0.00173068
0.852674
0.00118648
0.810618
0.000709146
0.770937
0.000199368
0.733439
-0.00025642
0.697819
-0.000676161
0.663922
-0.00102929
0.631677
-0.00139832
0.601115
-0.00183844
0.572173
-0.00230673
0.544708
-0.0027071
0.518583
-0.00308378
0.493796
-0.00351741
0.47029
-0.00416146
0.448011
-0.00498327
0.426824
-0.00582136
0.406803
-0.00652034
0.387787
-0.00709711
0.369841
-0.00762969
0.352745
-0.00820845
0.336646
-0.00878185
0.321307
-0.00933757
0.306714
-0.00993551
0.293097
-0.0106436
0.280309
-0.0114434
0.268144
-0.0123535
0.256554
-0.0132438
0.245552
-0.0139214
0.235154
-0.0143722
0.22526
-0.0147256
0.215866
-0.0150841
0.207019
-0.0154501
0.198591
-0.0157696
0.190515
-0.0159648
0.182751
-0.0160484
0.175367
-0.01604
0.16832
-0.015898
0.161496
-0.0156218
0.154936
-0.015207
0.148618
-0.0146779
0.142484
-0.0140873
0.13654
-0.0133976
0.13073
-0.0125592
0.1251
-0.0112339
0.11919
-0.00915019
0.110977
-0.00545471
0.0940987
0.0495897
0.00342007
0.946545
0.00222486
0.943282
0.0013097
0.898049
0.000470019
0.853514
-0.000612897
0.811701
-0.0014812
0.771805
-0.00231798
0.734275
-0.00305679
0.698557
-0.00377403
0.664639
-0.00446091
0.632364
-0.0050731
0.601727
-0.00560465
0.572704
-0.00607013
0.545174
-0.00653204
0.519045
-0.00700818
0.494272
-0.00739443
0.470676
-0.00758641
0.448203
-0.00774225
0.42698
-0.00794935
0.40701
-0.00827324
0.38811
-0.00873182
0.3703
-0.0092746
0.353288
-0.00988932
0.337261
-0.0106296
0.322047
-0.0113861
0.30747
-0.0120685
0.29378
-0.0127044
0.280945
-0.0132681
0.268708
-0.0136979
0.256983
-0.0140769
0.245931
-0.0145871
0.235664
-0.0152473
0.22592
-0.0159284
0.216547
-0.0164916
0.207583
-0.0169009
0.199
-0.0171578
0.190772
-0.0173462
0.18294
-0.0174501
0.175471
-0.0174173
0.168287
-0.0172678
0.161347
-0.0169999
0.154668
-0.0166008
0.148219
-0.0160434
0.141927
-0.0152887
0.135785
-0.0144307
0.129872
-0.0136007
0.12427
-0.0121773
0.117767
-0.00997585
0.108775
-0.0058416
0.0899645
0.0437481
0.00290697
0.943638
0.00127627
0.944913
-0.000216477
0.899542
-0.00130015
0.854598
-0.00225091
0.812652
-0.00310329
0.772658
-0.00385935
0.735031
-0.00448246
0.69918
-0.00501695
0.665174
-0.00551427
0.632861
-0.00600419
0.602217
-0.00648697
0.573187
-0.00691919
0.545606
-0.00729299
0.519419
-0.00767238
0.494651
-0.00819505
0.471199
-0.00884306
0.448851
-0.009503
0.42764
-0.0100804
0.407588
-0.0106382
0.388668
-0.0111459
0.370808
-0.0116118
0.353754
-0.0120138
0.337663
-0.0124691
0.322502
-0.0130167
0.308018
-0.0135957
0.294359
-0.0141953
0.281544
-0.0148822
0.269395
-0.0157558
0.257857
-0.0166704
0.246845
-0.017404
0.236398
-0.0178978
0.226414
-0.0182327
0.216881
-0.0185051
0.207855
-0.0187396
0.199235
-0.0189605
0.190993
-0.0190776
0.183057
-0.0190539
0.175447
-0.0189218
0.168155
-0.0186796
0.161104
-0.018316
0.154304
-0.0178406
0.147743
-0.0173026
0.141389
-0.0167246
0.135207
-0.0159807
0.129128
-0.0150441
0.123333
-0.013463
0.116186
-0.0109068
0.106219
-0.00617509
0.0852327
0.037573
0.00219453
0.941444
0.000562483
0.946545
-0.000881452
0.900986
-0.00234743
0.856064
-0.00365651
0.813961
-0.00482455
0.773826
-0.0058291
0.736036
-0.00668335
0.700035
-0.00745029
0.665941
-0.00814279
0.633554
-0.00870258
0.602777
-0.00912562
0.57361
-0.0095533
0.546034
-0.00993212
0.519797
-0.0102046
0.494924
-0.0103381
0.471333
-0.0104429
0.448955
-0.010586
0.427783
-0.0107686
0.40777
-0.0110319
0.388931
-0.0114197
0.371196
-0.0119793
0.354314
-0.0125907
0.338274
-0.0132002
0.323112
-0.0138613
0.308679
-0.0145517
0.295049
-0.0152285
0.282221
-0.0158128
0.269979
-0.0161736
0.258218
-0.0164371
0.247109
-0.0167961
0.236757
-0.017321
0.226938
-0.0179206
0.217481
-0.018476
0.20841
-0.0189478
0.199706
-0.0192399
0.191285
-0.0194064
0.183223
-0.0195195
0.17556
-0.019552
0.168187
-0.0194678
0.16102
-0.0192634
0.1541
-0.0189168
0.147397
-0.0183821
0.140854
-0.0176759
0.134501
-0.0169869
0.128439
-0.0160844
0.122431
-0.0146163
0.114717
-0.0118829
0.103486
-0.00660977
0.0799595
0.0309633
0.00194647
0.939497
-0.000141308
0.948633
-0.0019571
0.902801
-0.00353755
0.857644
-0.00474529
0.815169
-0.00580287
0.774883
-0.00660139
0.736834
-0.00724979
0.700683
-0.00781809
0.666509
-0.008351
0.634086
-0.00879893
0.603225
-0.00910791
0.573919
-0.00935871
0.546285
-0.00960031
0.520039
-0.00990511
0.495228
-0.010338
0.471765
-0.0108015
0.449419
-0.0112904
0.428272
-0.0117288
0.408209
-0.0120787
0.389281
-0.0123315
0.371448
-0.0126163
0.354599
-0.0129953
0.338653
-0.0134347
0.323551
-0.0139425
0.309187
-0.0144777
0.295584
-0.015002
0.282745
-0.0156672
0.270644
-0.0166005
0.259151
-0.0176331
0.248142
-0.0185283
0.237652
-0.0191693
0.227579
-0.0196276
0.217939
-0.0199808
0.208764
-0.0202313
0.199957
-0.0204903
0.191544
-0.0207326
0.183466
-0.0208299
0.175658
-0.0207589
0.168116
-0.0205812
0.160842
-0.0203091
0.153828
-0.0199576
0.147045
-0.0195808
0.140477
-0.0191664
0.134087
-0.0186704
0.127943
-0.0176096
0.12137
-0.0159488
0.113057
-0.0127772
0.100314
-0.00699284
0.0741751
0.0239704
0.00167408
0.937823
-0.000286398
0.950593
-0.00197125
0.904486
-0.00384385
0.859517
-0.00536357
0.816688
-0.00675602
0.776276
-0.00784781
0.737926
-0.00869925
0.701535
-0.00934967
0.667159
-0.00985711
0.634594
-0.0102463
0.603614
-0.0106105
0.574283
-0.0108717
0.546546
-0.0110225
0.52019
-0.010969
0.495175
-0.0108648
0.471661
-0.0107646
0.449319
-0.0107466
0.428254
-0.0108645
0.408327
-0.0111181
0.389535
-0.0114995
0.37183
-0.0119328
0.355032
-0.0123921
0.339113
-0.0129037
0.324063
-0.0135093
0.309793
-0.0142416
0.296316
-0.0150415
0.283545
-0.0157061
0.271309
-0.0161122
0.259557
-0.0163902
0.24842
-0.0167563
0.238018
-0.0173455
0.228169
-0.0180338
0.218628
-0.0187105
0.20944
-0.0193908
0.200637
-0.0199274
0.192081
-0.0202668
0.183805
-0.0205499
0.175941
-0.0208252
0.168391
-0.0210106
0.161028
-0.0210657
0.153883
-0.0209641
0.146943
-0.0206719
0.140185
-0.0202558
0.133671
-0.0198934
0.127581
-0.018878
0.120354
-0.0171594
0.111338
-0.0134194
0.0965744
-0.00671691
0.0674726
0.0172535
0.00198384
0.93584
-0.000582218
0.953159
-0.00250784
0.906412
-0.00429175
0.8613
-0.0055945
0.817991
-0.00677453
0.777456
-0.00770311
0.738855
-0.00842979
0.702261
-0.00903907
0.667769
-0.00950221
0.635057
-0.00976855
0.60388
-0.00991614
0.574431
-0.00999361
0.546623
-0.0100962
0.520292
-0.0102618
0.49534
-0.0104311
0.471831
-0.0106391
0.449527
-0.0107831
0.428398
-0.0108562
0.4084
-0.0108754
0.389554
-0.0109511
0.371906
-0.0111418
0.355223
-0.0114442
0.339415
-0.0118556
0.324474
-0.0123448
0.310282
-0.0128261
0.296798
-0.0133243
0.284043
-0.0140656
0.27205
-0.0151729
0.260664
-0.0164574
0.249704
-0.0176335
0.239194
-0.0185189
0.229054
-0.0192377
0.219346
-0.0198805
0.210083
-0.0203769
0.201134
-0.0208495
0.192553
-0.0213933
0.184349
-0.0218468
0.176394
-0.0220895
0.168634
-0.0221797
0.161118
-0.0221736
0.153877
-0.0221197
0.14689
-0.0220658
0.140131
-0.0219889
0.133594
-0.0215789
0.127171
-0.0204883
0.119264
-0.018286
0.109136
-0.0135768
0.0918651
-0.00575682
0.0596526
0.0114967
0.00192816
0.933911
-9.85526e-05
0.955186
-0.00191121
0.908224
-0.00398608
0.863375
-0.005603
0.819608
-0.00702486
0.778877
-0.00817544
0.740005
-0.00909307
0.703179
-0.00969635
0.668372
-0.0101691
0.63553
-0.0105657
0.604277
-0.0107755
0.574641
-0.0107995
0.546647
-0.0105983
0.520091
-0.0102625
0.495005
-0.0098457
0.471414
-0.00948997
0.449171
-0.00931513
0.428223
-0.0092689
0.408354
-0.00933688
0.389622
-0.00946606
0.372035
-0.00965986
0.355416
-0.00995633
0.339712
-0.0103419
0.32486
-0.010924
0.310864
-0.0117569
0.297631
-0.0126963
0.284983
-0.0134887
0.272842
-0.0140038
0.26118
-0.0144093
0.25011
-0.014968
0.239753
-0.0158447
0.229931
-0.0168489
0.220351
-0.0178207
0.211055
-0.0188448
0.202158
-0.0198108
0.193519
-0.0205458
0.185084
-0.0211619
0.17701
-0.0217992
0.169271
-0.0224205
0.161739
-0.0229302
0.154387
-0.023239
0.147198
-0.0233501
0.140242
-0.0235494
0.133793
-0.023154
0.126776
-0.0220771
0.118187
-0.0193224
0.106381
-0.0134865
0.0860292
-0.00441677
0.0505829
0.00707994
0.00269765
0.931214
0.000148462
0.957735
-0.00209854
0.910471
-0.00390638
0.865183
-0.00530007
0.821002
-0.00662846
0.780206
-0.00759628
0.740973
-0.00846002
0.704043
-0.00917093
0.669083
-0.00953789
0.635897
-0.00973718
0.604476
-0.00982439
0.574728
-0.00984292
0.546666
-0.00983619
0.520084
-0.00975517
0.494924
-0.00961347
0.471272
-0.00933325
0.448891
-0.0089648
0.427855
-0.00858409
0.407973
-0.00829
0.389328
-0.00814327
0.371888
-0.00813198
0.355405
-0.00830118
0.339881
-0.0086258
0.325184
-0.00899544
0.311234
-0.00936524
0.298
-0.00986596
0.285484
-0.010775
0.273751
-0.012168
0.262573
-0.0138079
0.25175
-0.015349
0.241294
-0.0165924
0.231174
-0.0176983
0.221456
-0.0188054
0.212162
-0.0197792
0.203132
-0.0206641
0.194404
-0.0216413
0.186061
-0.0226306
0.178
-0.0234337
0.170075
-0.0240136
0.162319
-0.0244623
0.154835
-0.0248655
0.147602
-0.0252524
0.140629
-0.0254436
0.133984
-0.0248702
0.126202
-0.0234893
0.116806
-0.0202093
0.103101
-0.0133546
0.0791745
-0.00319386
0.0404222
0.00388608
0.00235585
0.928858
0.00066844
0.959422
-0.00116112
0.912301
-0.00326343
0.867286
-0.00506629
0.822805
-0.00676024
0.7819
-0.00809026
0.742303
-0.00910557
0.705058
-0.00985511
0.669832
-0.0104149
0.636457
-0.0107157
0.604777
-0.0107069
0.574719
-0.0104248
0.546384
-0.0099606
0.51962
-0.00931906
0.494282
-0.00865767
0.470611
-0.00811569
0.448349
-0.00764178
0.427381
-0.00724657
0.407578
-0.00685382
0.388935
-0.00653276
0.371567
-0.006384
0.355256
-0.00637833
0.339875
-0.00661469
0.325421
-0.0071964
0.311815
-0.00811381
0.298918
-0.00914283
0.286513
-0.0100006
0.274609
-0.0106537
0.263226
-0.0112932
0.252389
-0.0121805
0.242181
-0.0134728
0.232466
-0.0149588
0.222942
-0.0164016
0.213605
-0.0178965
0.204627
-0.0194292
0.195937
-0.0207832
0.187415
-0.0219281
0.179144
-0.0230429
0.171189
-0.0242086
0.163485
-0.0253009
0.155928
-0.0262339
0.148535
-0.027103
0.141498
-0.0275607
0.134442
-0.0272204
0.125862
-0.0255716
0.115157
-0.0213146
0.0988441
-0.013376
0.0712358
-0.00203422
0.0290805
0.00185186
0.00323673
0.925621
0.00115939
0.9615
-0.00103642
0.914497
-0.00295907
0.869208
-0.00465562
0.824501
-0.00630744
0.783552
-0.00763522
0.743631
-0.00882063
0.706243
-0.00966385
0.670676
-0.0102106
0.637003
-0.0105462
0.605113
-0.0106432
0.574816
-0.01054
0.546281
-0.010313
0.519393
-0.0098904
0.49386
-0.00915146
0.469872
-0.00826665
0.447464
-0.00734839
0.426463
-0.0065596
0.406789
-0.00594558
0.388321
-0.00542623
0.371048
-0.00506196
0.354892
-0.0049006
0.339714
-0.00486531
0.325385
-0.00489917
0.311849
-0.00507258
0.299091
-0.00560873
0.287049
-0.00675649
0.275757
-0.00841891
0.264888
-0.0103833
0.254353
-0.0123533
0.244151
-0.0140985
0.234212
-0.0157116
0.224556
-0.0173931
0.215286
-0.0190125
0.206246
-0.0204922
0.197416
-0.0219941
0.188917
-0.0236052
0.180756
-0.0251376
0.172722
-0.0264301
0.164777
-0.0275562
0.157054
-0.0285839
0.149562
-0.0296101
0.142525
-0.0298986
0.13473
-0.0294858
0.125449
-0.0275118
0.113183
-0.0220421
0.0933745
-0.0117483
0.060942
-0.00112522
0.0184574
0.000726644
0.00319324
0.922428
0.00181372
0.962879
-0.00024269
0.916553
-0.00242632
0.871392
-0.0046504
0.826725
-0.00671957
0.785621
-0.00843935
0.745351
-0.00993237
0.707736
-0.0109828
0.671726
-0.0116979
0.637718
-0.0120627
0.605477
-0.0120468
0.5748
-0.0116344
0.545868
-0.010944
0.518703
-0.0101966
0.493112
-0.00935455
0.46903
-0.00839213
0.446502
-0.00731284
0.425383
-0.0061616
0.405638
-0.00507553
0.387235
-0.0041699
0.370142
-0.00347313
0.354195
-0.00307614
0.339317
-0.00311607
0.325425
-0.00358999
0.312323
-0.00437018
0.299871
-0.00523971
0.287918
-0.00601526
0.276532
-0.00682775
0.265701
-0.00776483
0.255291
-0.00897954
0.245366
-0.0106902
0.235922
-0.0127666
0.226632
-0.0148376
0.217357
-0.016916
0.208324
-0.0190987
0.199599
-0.0212474
0.191066
-0.0231463
0.182655
-0.0249043
0.17448
-0.0267101
0.166583
-0.028524
0.158868
-0.0303316
0.15137
-0.0319152
0.144108
-0.0325823
0.135397
-0.0323457
0.125213
-0.0295619
0.110399
-0.0221388
0.0859514
-0.00911493
0.0479181
-0.00120836
0.0105508
-0.000481719
0.00464064
0.917787
0.00293355
0.964586
0.000364869
0.919122
-0.00201285
0.87377
-0.00413595
0.828848
-0.00623762
0.787722
-0.00816064
0.747274
-0.00997722
0.709553
-0.011428
0.673177
-0.0125285
0.638819
-0.013252
0.606201
-0.0135943
0.575142
-0.0135282
0.545802
-0.0130205
0.518195
-0.0121023
0.492194
-0.0108794
0.467807
-0.00950228
0.445124
-0.00810307
0.423984
-0.00677864
0.404313
-0.0054995
0.385956
-0.00428947
0.368932
-0.0032355
0.353141
-0.00232106
0.338402
-0.00159464
0.324699
-0.00113389
0.311862
-0.00107332
0.299811
-0.00162987
0.288475
-0.00288988
0.277792
-0.00465678
0.267468
-0.00683081
0.257465
-0.00923298
0.247768
-0.0115239
0.238213
-0.0136562
0.228764
-0.0159297
0.219631
-0.0182939
0.210689
-0.0205256
0.201831
-0.0226514
0.193192
-0.0249238
0.184927
-0.0272861
0.176842
-0.0294857
0.168783
-0.0314836
0.160866
-0.0334591
0.153345
-0.0346774
0.145327
-0.0352451
0.135965
-0.0342669
0.124234
-0.0298398
0.105972
-0.02035
0.0764616
-0.00577343
0.0333415
-0.000821117
0.0055985
-0.00130284
0.00434892
0.913438
0.00332345
0.965612
0.00128904
0.921156
-0.00124862
0.876307
-0.00409648
0.831696
-0.00671138
0.790337
-0.00908439
0.749647
-0.0112446
0.711713
-0.0130173
0.67495
-0.0144194
0.640221
-0.0153379
0.607119
-0.0158091
0.575613
-0.0157672
0.54576
-0.0152966
0.517725
-0.0144671
0.491364
-0.0132141
0.466554
-0.0115657
0.443476
-0.00962309
0.422041
-0.00761022
0.4023
-0.00572249
0.384068
-0.0040077
0.367217
-0.00259043
0.351724
-0.00162378
0.337436
-0.00110996
0.324185
-0.00103685
0.311789
-0.00129361
0.300068
-0.00172125
0.288902
-0.00225692
0.278328
-0.0030726
0.268283
-0.00422948
0.258621
-0.00572422
0.249263
-0.00778582
0.240275
-0.0104453
0.231424
-0.0132508
0.222436
-0.0160247
0.213463
-0.0189037
0.20471
-0.0218959
0.196184
-0.024704
0.187735
-0.0272833
0.179421
-0.0298358
0.171336
-0.0324705
0.1635
-0.0350844
0.155959
-0.0369694
0.147212
-0.0378151
0.136811
-0.0358956
0.122315
-0.0291151
0.0991917
-0.0161255
0.0634721
-0.00311473
0.0203307
-0.000227297
0.00271107
-0.00153013
0.00583565
0.907603
0.00439748
0.96705
0.00210103
0.923453
-0.000414955
0.878823
-0.00302168
0.834303
-0.00582224
0.793138
-0.00876475
0.752589
-0.0115818
0.71453
-0.0140691
0.677437
-0.0161496
0.642301
-0.0177042
0.608674
-0.0187101
0.576619
-0.0190354
0.546086
-0.0187127
0.517402
-0.017882
0.490534
-0.0165992
0.465271
-0.0149255
0.441802
-0.0129307
0.420047
-0.0106641
0.400034
-0.00832423
0.381728
-0.00600977
0.364903
-0.00375431
0.349469
-0.00172663
0.335408
-3.07225e-05
0.322489
0.00119073
0.310568
0.00175554
0.299503
0.00147318
0.289185
0.000398015
0.279403
-0.0012786
0.26996
-0.0034671
0.26081
-0.00610465
0.2519
-0.00887988
0.24305
-0.0115684
0.234112
-0.0143932
0.225261
-0.017502
0.216571
-0.0206099
0.207818
-0.0235289
0.199103
-0.0265027
0.190709
-0.0296194
0.182538
-0.0327295
0.174446
-0.0357836
0.166554
-0.0382536
0.158429
-0.0395995
0.148558
-0.0396353
0.136847
-0.0364964
0.119176
-0.0276902
0.0903855
-0.0112454
0.0470273
-0.00236256
0.0114479
-0.00034636
0.000694865
-0.00187649
0.00514929
0.902453
0.00419751
0.968002
0.00232523
0.925325
-0.000149981
0.881298
-0.00318195
0.837335
-0.00627036
0.796226
-0.00952131
0.75584
-0.0127127
0.717722
-0.0156933
0.680418
-0.0183343
0.644942
-0.020479
0.610819
-0.0220447
0.578185
-0.0228911
0.546932
-0.0229019
0.517413
-0.0221521
0.489784
-0.0207333
0.463852
-0.0187101
0.439779
-0.0162605
0.417597
-0.0135013
0.397275
-0.0106585
0.378886
-0.00793257
0.362177
-0.00547803
0.347014
-0.00340475
0.333335
-0.00178973
0.320874
-0.000703408
0.309481
6.52853e-06
0.298793
0.000445949
0.288745
0.000428976
0.27942
-0.000191379
0.27058
-0.00137552
0.261994
-0.00310519
0.25363
-0.00542777
0.245373
-0.00846659
0.237151
-0.0119643
0.228759
-0.0155137
0.220121
-0.0191551
0.211459
-0.0229517
0.2029
-0.0267452
0.194502
-0.0303471
0.18614
-0.0337468
0.177845
-0.0372615
0.170069
-0.0400259
0.161194
-0.0421227
0.150654
-0.0414698
0.136194
-0.0355973
0.113303
-0.0227335
0.0775218
-0.00623748
0.0305313
-0.00127416
0.00648457
-0.000153777
-0.000425514
-0.00203027
0.00582258
0.896631
0.00529514
0.968529
0.00346159
0.927159
0.00121665
0.883543
-0.00157593
0.840127
-0.00495216
0.799603
-0.00876634
0.759655
-0.0126814
0.721637
-0.016569
0.684305
-0.0201324
0.648506
-0.02312
0.613806
-0.0254136
0.580479
-0.0270231
0.548541
-0.0277706
0.51816
-0.027578
0.489591
-0.0265316
0.462806
-0.0246796
0.437927
-0.0221589
0.415076
-0.0190873
0.394203
-0.0156076
0.375406
-0.0118959
0.358465
-0.0081804
0.343299
-0.0047077
0.329862
-0.00162549
0.317792
0.000862974
0.306993
0.0023878
0.297268
0.0027871
0.288346
0.00233063
0.279877
0.00114043
0.27177
-0.000735927
0.26387
-0.00332212
0.256216
-0.00643049
0.248481
-0.00969797
0.240419
-0.0131222
0.232183
-0.0169033
0.223902
-0.0208937
0.215449
-0.0248144
0.20682
-0.0286185
0.198306
-0.0325032
0.190024
-0.0366085
0.181951
-0.0404629
0.173923
-0.0430225
0.163753
-0.0440603
0.151692
-0.0418608
0.133994
-0.0335964
0.105039
-0.0162325
0.0601578
-0.00374043
0.0180392
-0.000823653
0.00356779
-0.000146275
-0.00110289
-0.00217654
0.00382752
0.892803
0.00451013
0.967847
0.00243113
0.929238
0.000591627
0.885383
-0.0020189
0.842738
-0.00521517
0.802799
-0.00896408
0.763403
-0.0130966
0.725769
-0.0173688
0.688577
-0.0215358
0.652673
-0.0253483
0.617619
-0.0285215
0.583652
-0.0308631
0.550883
-0.0322399
0.519537
-0.0325241
0.489875
-0.031709
0.461991
-0.0298511
0.436069
-0.0270818
0.412307
-0.0236808
0.390802
-0.0199403
0.371665
-0.0160959
0.354621
-0.0122554
0.339458
-0.00862284
0.326229
-0.00544472
0.314614
-0.00279624
0.304345
-0.000519142
0.294991
0.00130905
0.286518
0.00229003
0.278896
0.00234521
0.271715
0.00143327
0.264782
-0.000108059
0.257757
-0.00249391
0.250867
-0.00581463
0.243739
-0.00977967
0.236148
-0.0141013
0.228224
-0.0185502
0.219898
-0.0231999
0.21147
-0.0280175
0.203124
-0.0326896
0.194697
-0.0372642
0.186525
-0.0408482
0.177507
-0.0434871
0.166392
-0.0439102
0.152115
-0.0395943
0.129678
-0.0277496
0.0931943
-0.00906057
0.0414688
-0.00198497
0.0109636
-0.000476658
0.00205948
-0.000151576
-0.00142797
-0.00232812
0.004604
0.888199
0.0056519
0.966799
0.00406606
0.930823
0.00263766
0.886811
-2.31153e-05
0.845399
-0.00319936
0.805975
-0.00721009
0.767414
-0.0118427
0.730402
-0.0168749
0.69361
-0.0219918
0.65779
-0.0269339
0.622561
-0.0313808
0.588099
-0.034971
0.554473
-0.0375018
0.522068
-0.0388618
0.491235
-0.0389625
0.462091
-0.0377693
0.434876
-0.0352755
0.409813
-0.0315893
0.387116
-0.027001
0.367077
-0.02188
0.3495
-0.0165521
0.33413
-0.0112371
0.320914
-0.00623928
0.309616
-0.00200392
0.300109
0.00102003
0.291967
0.00284137
0.284697
0.00363439
0.278103
0.0033709
0.271979
0.00215088
0.266002
-0.000205308
0.260114
-0.00324673
0.253908
-0.00673758
0.24723
-0.0108052
0.240215
-0.0152357
0.232654
-0.0200518
0.224714
-0.0250598
0.216478
-0.0298761
0.20794
-0.034747
0.199568
-0.0397783
0.191557
-0.043713
0.181442
-0.0459772
0.168656
-0.0449679
0.151106
-0.0374334
0.122144
-0.0200099
0.0757708
-0.004802
0.0262609
-0.00108289
0.0072445
-0.000249074
0.00122566
-0.000165032
-0.00151201
-0.00249315
0.00213671
0.886063
0.0042903
0.964645
0.00224172
0.932872
0.000900613
0.888152
-0.00112122
0.847421
-0.00385898
0.808713
-0.00737776
0.770933
-0.0118022
0.734826
-0.0168282
0.698636
-0.022227
0.663189
-0.0276908
0.628025
-0.0328641
0.593272
-0.0374607
0.55907
-0.0410534
0.52566
-0.0433435
0.493525
-0.0441504
0.462898
-0.0435004
0.434226
-0.0414726
0.407786
-0.0381931
0.383836
-0.0339485
0.362832
-0.0290382
0.344589
-0.0237214
0.328813
-0.0183464
0.315539
-0.0131899
0.304459
-0.00829613
0.295215
-0.00382234
0.287493
-0.000123833
0.280998
0.00264308
0.275336
0.00414437
0.270477
0.00418576
0.265961
0.00318979
0.26111
0.000962394
0.256136
-0.00259459
0.250787
-0.00685286
0.244474
-0.0118873
0.237689
-0.0172703
0.230097
-0.0229819
0.22219
-0.0290171
0.213975
-0.0350973
0.205648
-0.040194
0.196653
-0.0439022
0.18515
-0.0454363
0.170191
-0.0415094
0.147179
-0.0312733
0.111908
-0.0114054
0.0559029
-0.00178175
0.0166372
0.00018179
0.00528096
0.000407801
0.000999649
8.92125e-05
-0.00119343
-0.00240394
0.00318295
0.88288
0.00475497
0.963073
0.00328482
0.934342
0.00241214
0.889025
0.0009586
0.848874
-0.00146691
0.811138
-0.00476732
0.774233
-0.00920891
0.739268
-0.0147252
0.704152
-0.0209493
0.669413
-0.0276766
0.634752
-0.0345794
0.600175
-0.0408018
0.565292
-0.0460788
0.530937
-0.0500759
0.497523
-0.0523908
0.465213
-0.0528356
0.434671
-0.0512855
0.406236
-0.0477923
0.380343
-0.0426041
0.357644
-0.036323
0.338308
-0.0293408
0.321831
-0.0219726
0.308171
-0.0147883
0.297275
-0.00835059
0.288778
-0.0029715
0.282114
0.00101987
0.277007
0.00344271
0.272913
0.00496571
0.268954
0.00511385
0.265813
0.00347745
0.262746
0.000697947
0.258915
-0.00288826
0.254373
-0.00747059
0.249056
-0.012607