/*--------------------------------*- C++ -*----------------------------------*\
| =========                 |                                                 |
| \\      /  F ield         | OpenFOAM: The Open Source CFD Toolbox           |
|  \\    /   O peration     | Version:  v1912                                 |
|   \\  /    A nd           | Website:  www.openfoam.com                      |
|    \\/     M anipulation  |                                                 |
\*---------------------------------------------------------------------------*/
FoamFile
{
    version     2.0;
    format      ascii;
    class       volVectorField;
    location    "0.41";
    object      U;
}
// * * * * * * * * * * * * * * * * * * * * * * * * * * * * * * * * * * * * * //

dimensions      [0 1 -1 0 0 0 0];


internalField   nonuniform List<vector> 
6600
(
(39.8425 -0.0445339 0)
(40.0915 -0.0561268 4.17448e-20)
(40.1521 0.0101896 2.94566e-18)
(40.1904 0.0908065 0)
(40.2244 0.16557 3.65542e-18)
(40.254 0.249768 1.25112e-19)
(40.2985 0.323588 -1.38917e-19)
(40.3472 0.390075 -1.52887e-19)
(40.3915 0.460232 3.0796e-18)
(40.4361 0.528174 -2.64377e-19)
(40.4743 0.604446 0)
(40.5063 0.693427 -3.70159e-18)
(40.5357 0.796495 0)
(40.5713 0.915617 -4.09038e-18)
(40.5889 1.06025 -5.29627e-18)
(40.6104 1.2344 -2.75338e-18)
(40.6401 1.41615 0)
(40.7037 1.60465 0)
(40.7446 1.83426 4.14064e-18)
(40.7629 2.10366 -3.8497e-18)
(40.7979 2.39303 -5.47835e-19)
(40.8215 2.76704 -1.86957e-18)
(40.8049 3.19306 -3.351e-18)
(40.822 3.59344 7.0016e-19)
(40.8805 4.01844 2.4404e-18)
(40.937 4.48385 0)
(40.9632 4.99958 5.51881e-18)
(40.9538 5.58174 0)
(40.9461 6.18472 -2.42781e-18)
(40.9704 6.83376 -1.44784e-18)
(40.9924 7.56529 -4.70313e-19)
(40.9968 8.36934 -1.55267e-18)
(41.0324 9.21606 -6.51332e-19)
(41.1076 10.1369 1.04105e-18)
(41.1827 11.1516 5.13806e-19)
(41.2385 12.2509 8.29842e-19)
(41.2652 13.4483 1.78618e-18)
(41.3338 14.7677 1.00144e-18)
(41.4083 16.1907 -4.95208e-19)
(41.4718 17.7116 2.74748e-19)
(41.5842 19.3638 -1.06185e-19)
(41.6917 21.1273 0)
(41.7893 22.9997 1.09204e-18)
(41.9294 25.0225 -2.26738e-18)
(42.1261 27.1277 0)
(42.3784 29.4573 -3.48606e-18)
(42.5065 31.7445 -8.21467e-18)
(43.0879 34.4588 0)
(41.703 36.1271 0)
(31.7181 29.9704 -4.1319e-18)
(39.7371 -0.0461229 2.44688e-18)
(40.1675 -0.0721941 -2.65034e-18)
(40.2133 0.0201637 0)
(40.2492 0.102281 -5.06321e-20)
(40.2911 0.1713 3.59968e-18)
(40.3348 0.247008 1.23138e-19)
(40.372 0.322525 -8.80139e-22)
(40.4243 0.399882 -1.50948e-19)
(40.4747 0.472607 0)
(40.511 0.559921 -5.67748e-18)
(40.5529 0.646696 -2.02953e-19)
(40.5898 0.749361 3.49321e-18)
(40.6221 0.871439 3.59773e-18)
(40.6615 1.01129 2.29271e-18)
(40.7049 1.16401 3.31941e-21)
(40.7478 1.34457 3.28339e-19)
(40.7695 1.56429 -2.78623e-18)
(40.801 1.80117 0)
(40.8561 2.05963 0)
(40.8853 2.34776 3.88456e-18)
(40.9157 2.64387 5.07342e-19)
(40.9682 2.9085 -2.69277e-18)
(41.0154 3.26817 -2.2936e-18)
(41.0464 3.66962 -2.46197e-18)
(41.1115 4.10891 -1.94218e-18)
(41.1868 4.59101 -7.67322e-19)
(41.2545 5.09968 -9.39521e-19)
(41.3316 5.66815 -8.70867e-19)
(41.4087 6.30335 2.37845e-18)
(41.5082 6.98272 4.06476e-19)
(41.6241 7.71661 -2.62085e-18)
(41.7437 8.52556 2.18075e-18)
(41.8577 9.42473 1.11099e-18)
(41.9555 10.3875 -1.52214e-18)
(42.044 11.4249 5.81682e-19)
(42.1437 12.5534 -8.48782e-19)
(42.2951 13.7659 -2.31468e-19)
(42.4699 15.0544 -5.21606e-19)
(42.6518 16.4375 4.20908e-19)
(42.8652 17.9622 6.4029e-19)
(43.1121 19.5785 0)
(43.3905 21.3062 0)
(43.6976 23.138 1.78762e-18)
(44.0365 25.1061 -2.09888e-18)
(44.3811 27.159 -6.30375e-18)
(44.8457 29.4076 3.60027e-18)
(45.2558 31.6382 1.10967e-17)
(46.0487 34.1615 0)
(44.8386 35.3385 -1.03487e-17)
(33.2855 29.0637 4.61385e-18)
(39.6475 -0.0274043 -5.34045e-20)
(40.2462 -0.0952903 2.70644e-18)
(40.2862 0.0225073 2.87003e-18)
(40.3289 0.0891471 -4.65451e-22)
(40.3687 0.176193 -2.55365e-19)
(40.4045 0.260917 1.21566e-19)
(40.4387 0.336119 0)
(40.4833 0.407783 0)
(40.5332 0.481786 0)
(40.5802 0.563725 3.0777e-18)
(40.622 0.666271 -1.97005e-19)
(40.6694 0.776322 -3.5196e-18)
(40.7126 0.905951 -1.78866e-18)
(40.7613 1.0548 3.892e-18)
(40.7998 1.2317 2.21425e-18)
(40.8519 1.42207 -3.09276e-19)
(40.9196 1.61502 5.78336e-18)
(40.9968 1.83787 -2.86003e-18)
(41.0787 2.09452 -3.10244e-18)
(41.1498 2.38428 0)
(41.2301 2.74533 -1.80237e-18)
(41.3035 3.15048 2.15294e-18)
(41.3589 3.55082 2.32106e-18)
(41.4242 3.96218 2.49297e-18)
(41.5303 4.39849 2.06292e-18)
(41.6558 4.88592 -1.95508e-19)
(41.7512 5.43333 -3.51962e-19)
(41.8195 6.00507 -8.86596e-19)
(41.9172 6.63212 -3.71331e-19)
(42.0562 7.31612 1.31083e-18)
(42.193 8.07496 3.60117e-19)
(42.311 8.87644 0)
(42.4744 9.71928 -9.7517e-19)
(42.6975 10.6456 1.05589e-19)
(42.9465 11.6653 8.68682e-20)
(43.2075 12.766 -6.76218e-19)
(43.4381 13.9525 -2.39413e-19)
(43.7264 15.2433 5.28468e-19)
(44.0556 16.6276 6.96479e-19)
(44.3915 18.0825 0)
(44.7967 19.6679 2.9113e-18)
(45.2349 21.3381 0)
(45.7095 23.0962 0)
(46.2645 24.979 6.25277e-18)
(46.897 26.9205 3.65124e-18)
(47.5751 29.0517 -6.07683e-18)
(48.2224 31.2187 -6.39717e-18)
(49.1789 33.5581 0)
(47.9579 34.2862 -6.31426e-18)
(34.7932 27.6523 6.79959e-18)
(39.5719 -0.00866609 -2.41037e-18)
(40.3627 -0.0937435 2.00752e-20)
(40.3816 0.0551272 -2.94751e-18)
(40.4265 0.109673 -3.02628e-18)
(40.4738 0.1841 -3.43016e-18)
(40.505 0.258803 -1.7999e-18)
(40.5371 0.335134 -1.30549e-19)
(40.5922 0.419197 0)
(40.6469 0.519191 2.46226e-18)
(40.7032 0.619323 2.8704e-18)
(40.7576 0.736234 -1.90265e-19)
(40.8115 0.871904 -2.05587e-19)
(40.867 1.02636 -1.63312e-18)
(40.9359 1.19578 -3.5995e-19)
(41.0018 1.37434 1.35821e-19)
(41.0612 1.58937 -2.90978e-19)
(41.1142 1.83699 1.26124e-19)
(41.186 2.08548 3.22603e-18)
(41.2791 2.35643 4.17502e-18)
(41.3539 2.64593 0)
(41.4303 2.91829 2.06583e-19)
(41.5475 3.22684 0)
(41.637 3.60151 0)
(41.7107 4.01835 -4.88377e-19)
(41.8289 4.46819 1.48011e-18)
(41.9963 4.94963 1.45605e-18)
(42.1875 5.48286 -2.84111e-19)
(42.3553 6.06752 1.23854e-18)
(42.5125 6.69941 0)
(42.7091 7.38054 0)
(42.9624 8.11617 1.77842e-19)
(43.2368 8.94778 0)
(43.5025 9.86008 3.15749e-19)
(43.7717 10.8209 -2.45573e-19)
(44.0344 11.8332 4.59854e-19)
(44.3114 12.9267 1.32031e-18)
(44.6789 14.1032 -2.88886e-18)
(45.0955 15.3526 1.13119e-18)
(45.5345 16.674 6.13359e-19)
(46.0229 18.1144 7.18942e-19)
(46.5705 19.626 -7.06247e-18)
(47.1887 21.2378 0)
(47.8454 22.9098 0)
(48.5383 24.6968 -3.65845e-18)
(49.3252 26.5511 -5.87697e-18)
(50.2498 28.5482 -1.24969e-18)
(51.1346 30.5967 -9.41411e-18)
(52.1187 32.6474 1.04025e-17)
(50.7154 32.9173 1.39854e-17)
(35.9103 25.9351 0)
(39.4867 0.00534276 -8.94784e-21)
(40.458 -0.105028 2.47819e-18)
(40.482 0.0600785 2.68546e-18)
(40.5205 0.108779 3.13466e-18)
(40.5457 0.193203 0)
(40.5729 0.263433 6.49063e-20)
(40.5998 0.344577 0)
(40.6566 0.423675 -1.37211e-19)
(40.7204 0.522186 -4.69507e-18)
(40.7761 0.635635 -2.88045e-18)
(40.8417 0.757209 1.83105e-19)
(40.9054 0.894071 1.96258e-19)
(40.9768 1.04467 -2.18415e-19)
(41.0473 1.22529 -1.94027e-18)
(41.1237 1.4229 -4.32908e-18)
(41.2178 1.62086 2.7968e-19)
(41.3095 1.83824 -4.74928e-18)
(41.4144 2.083 3.12156e-19)
(41.5536 2.35687 -1.45163e-18)
(41.6951 2.67705 -7.21513e-19)
(41.822 3.063 2.02167e-18)
(41.9537 3.45829 0)
(42.1081 3.84368 0)
(42.2403 4.26286 -7.3201e-19)
(42.3938 4.7048 -9.47231e-19)
(42.5728 5.19777 8.45348e-19)
(42.7526 5.72202 -2.06411e-19)
(42.9516 6.29634 0)
(43.1687 6.93347 9.86216e-20)
(43.4266 7.63394 -1.09855e-19)
(43.7025 8.39416 -1.80759e-19)
(43.9622 9.16908 5.975e-19)
(44.2695 9.99229 -1.81496e-19)
(44.6424 10.8972 5.26618e-19)
(45.0758 11.8925 -5.86017e-19)
(45.5657 12.9597 0)
(46.0225 14.0898 1.15906e-18)
(46.5393 15.3012 4.54036e-18)
(47.1335 16.6042 -2.45741e-18)
(47.7526 17.9576 -3.11988e-18)
(48.4456 19.4068 4.17804e-18)
(49.2038 20.9215 0)
(50.0301 22.4976 0)
(50.9501 24.1401 -5.57217e-18)
(51.9141 25.8223 1.22247e-17)
(52.9444 27.6646 3.24122e-18)
(54.0208 29.6452 5.59382e-18)
(55.0012 31.4393 -1.23616e-17)
(53.2551 31.3159 9.12878e-19)
(36.6733 23.9625 -1.88047e-17)
(39.415 0.0118506 2.22478e-18)
(40.5582 -0.109357 -9.51973e-20)
(40.5653 0.0845396 -2.73729e-18)
(40.6177 0.114117 1.44353e-18)
(40.6413 0.192304 0)
(40.6723 0.261013 1.86302e-18)
(40.7219 0.359616 -6.11878e-20)
(40.7797 0.460934 -2.07915e-18)
(40.8465 0.574166 2.38307e-18)
(40.9107 0.692949 0)
(40.9774 0.835347 1.71317e-19)
(41.0481 0.98865 1.271e-18)
(41.1325 1.1562 -1.7822e-18)
(41.2284 1.33519 2.24372e-19)
(41.3237 1.53788 2.21317e-18)
(41.4203 1.77452 -2.6021e-19)
(41.5206 2.01998 1.51929e-18)
(41.6298 2.27975 -2.95776e-19)
(41.7545 2.54845 2.93726e-19)
(41.8922 2.80396 8.39537e-19)
(42.046 3.0733 1.02964e-18)
(42.2128 3.41031 1.70973e-20)
(42.3878 3.79449 3.28802e-19)
(42.5503 4.22704 1.10154e-18)
(42.7596 4.68029 0)
(43.0403 5.16691 -6.68049e-19)
(43.3233 5.70388 7.57232e-20)
(43.5918 6.27167 -5.65296e-20)
(43.8528 6.87582 -1.32794e-19)
(44.1554 7.51792 -4.27804e-20)
(44.542 8.22705 5.83851e-19)
(44.9745 9.04144 -4.41565e-19)
(45.416 9.92615 0)
(45.8918 10.8605 0)
(46.3621 11.8263 0)
(46.8192 12.8469 0)
(47.3969 13.9408 3.47996e-18)
(48.0527 15.1007 -6.72134e-18)
(48.7421 16.3091 0)
(49.4935 17.602 5.26682e-20)
(50.3215 18.9521 -4.96464e-19)
(51.2315 20.3739 -8.38854e-18)
(52.1814 21.8293 4.63232e-18)
(53.1786 23.3596 0)
(54.3352 24.905 4.21618e-18)
(55.593 26.5651 -1.5248e-17)
(56.7926 28.3889 1.08414e-17)
(57.6207 29.9096 7.91658e-18)
(55.329 29.3708 2.84471e-17)
(36.9639 21.6857 -2.13431e-17)
(39.3213 0.00988426 -2.22186e-18)
(40.6521 -0.11266 -4.70319e-18)
(40.6705 0.0960751 4.02837e-20)
(40.6989 0.115229 -1.44872e-18)
(40.7162 0.205951 1.47426e-18)
(40.7399 0.283475 -5.28389e-20)
(40.7919 0.377374 1.87731e-18)
(40.8562 0.480696 2.08631e-18)
(40.924 0.597189 2.22775e-18)
(40.9945 0.719153 -7.63556e-20)
(41.0746 0.850464 -1.26888e-18)
(41.1604 0.992779 -9.82259e-20)
(41.2538 1.15791 1.58635e-18)
(41.3578 1.33829 0)
(41.4727 1.52531 0)
(41.5985 1.72826 1.13187e-19)
(41.7247 1.95139 1.83291e-18)
(41.892 2.20168 0)
(42.0835 2.49853 1.26165e-19)
(42.2783 2.83387 -1.31698e-18)
(42.4781 3.18782 -1.07062e-18)
(42.6827 3.53917 3.03244e-19)
(42.9147 3.89767 0)
(43.1281 4.30306 -5.37886e-19)
(43.3342 4.75601 -6.5006e-20)
(43.6025 5.23095 7.25189e-20)
(43.9095 5.74158 0)
(44.2367 6.30842 0)
(44.5986 6.93149 -1.00581e-19)
(44.9995 7.62427 4.73683e-19)
(45.4253 8.35251 -1.05699e-18)
(45.8525 9.08028 5.18256e-19)
(46.3154 9.84485 9.33634e-19)
(46.825 10.6791 -2.31247e-18)
(47.4185 11.5999 4.03207e-18)
(48.1387 12.5901 1.36553e-18)
(48.8328 13.6278 -2.39564e-18)
(49.5699 14.7089 3.14751e-18)
(50.3986 15.8623 -4.91408e-18)
(51.2728 17.0596 7.11474e-20)
(52.2188 18.3061 -5.88944e-19)
(53.2381 19.603 4.31659e-18)
(54.3415 20.9324 6.26144e-18)
(55.5203 22.2875 -6.95607e-18)
(56.6942 23.6566 4.31662e-18)
(57.9716 25.1516 0)
(59.2911 26.8666 6.59431e-18)
(60.0022 28.0929 9.7269e-18)
(57.0473 27.2 -2.01039e-17)
(36.7312 19.16 -6.3543e-18)
(39.2239 0.0147311 2.05649e-18)
(40.7363 -0.107505 2.29442e-18)
(40.7535 0.107735 1.96279e-20)
(40.8185 0.112414 -1.33073e-18)
(40.8384 0.226197 -2.9876e-18)
(40.8842 0.316406 1.64142e-18)
(40.9407 0.421871 -3.61291e-18)
(41.0115 0.540181 9.41574e-19)
(41.0853 0.660446 -2.16741e-18)
(41.1633 0.798743 -1.17226e-18)
(41.2522 0.943609 2.61326e-18)
(41.3503 1.09871 -1.53974e-18)
(41.4633 1.26587 -1.346e-18)
(41.5909 1.43999 4.72625e-21)
(41.7215 1.64131 -6.46304e-19)
(41.8616 1.85511 7.76719e-19)
(41.9897 2.08586 -9.25125e-19)
(42.1201 2.32 0)
(42.2956 2.54405 0)
(42.5005 2.79069 0)
(42.728 3.07195 -9.19107e-20)
(42.954 3.40604 -3.43835e-19)
(43.2146 3.76646 -1.3935e-19)
(43.5042 4.15579 -6.70512e-20)
(43.8116 4.5859 0)
(44.1708 5.07103 0)
(44.5666 5.57934 -2.94891e-19)
(44.96 6.11091 2.2097e-19)
(45.3387 6.67544 -1.54644e-19)
(45.7594 7.26055 1.86826e-19)
(46.2758 7.91083 1.40887e-19)
(46.8518 8.65331 1.19352e-18)
(47.4661 9.46393 -6.33672e-19)
(48.1576 10.3259 2.42467e-18)
(48.8592 11.2072 -1.79223e-18)
(49.4918 12.1165 -9.40584e-19)
(50.239 13.0723 2.87347e-19)
(51.1014 14.0975 2.04314e-18)
(52.0111 15.1505 2.16794e-18)
(52.9731 16.2408 3.2641e-18)
(54.0142 17.3833 -5.78666e-19)
(55.1361 18.5585 5.79634e-18)
(56.2952 19.7537 -6.44769e-18)
(57.5213 20.9801 0)
(58.933 22.179 0)
(60.3777 23.4783 0)
(61.7145 25.0046 0)
(62.0998 25.9784 0)
(58.1741 24.7351 -1.19626e-17)
(35.8736 16.4149 1.95776e-17)
(39.1381 0.0100424 -2.06069e-18)
(40.8289 -0.105641 0)
(40.8443 0.11474 0)
(40.8993 0.124353 1.35428e-18)
(40.903 0.252434 1.44013e-18)
(40.9556 0.338043 -1.64374e-18)
(41.0207 0.444373 1.7929e-18)
(41.0963 0.555729 -9.45363e-19)
(41.1784 0.671388 9.60249e-19)
(41.2676 0.795384 1.17273e-18)
(41.371 0.922218 -1.19404e-18)
(41.483 1.06576 1.08736e-18)
(41.6082 1.2209 1.97065e-18)
(41.7434 1.38992 0)
(41.893 1.56104 7.52986e-19)
(42.0616 1.74995 -8.67813e-19)
(42.2627 1.95642 9.98134e-21)
(42.4796 2.21183 -6.29025e-19)
(42.7136 2.4917 6.87634e-19)
(42.9654 2.78038 0)
(43.2414 3.08435 0)
(43.5127 3.39921 1.12795e-19)
(43.7987 3.73558 2.07336e-19)
(44.0824 4.10597 1.67566e-19)
(44.3853 4.49315 8.30715e-20)
(44.7437 4.91507 -4.23647e-19)
(45.1534 5.3876 8.10974e-19)
(45.6113 5.90979 -1.10408e-18)
(46.1131 6.48517 6.49167e-19)
(46.6638 7.13438 -6.27232e-19)
(47.2564 7.80568 3.86406e-19)
(47.8652 8.47946 -1.37626e-18)
(48.4867 9.16097 9.53085e-19)
(49.1161 9.88313 -1.74148e-18)
(49.8139 10.6725 0)
(50.712 11.5258 -1.70572e-18)
(51.6292 12.4302 -1.8303e-18)
(52.5599 13.3382 3.5207e-19)
(53.568 14.2945 3.79819e-18)
(54.6367 15.29 -3.81126e-18)
(55.7749 16.2939 -5.5674e-19)
(56.98 17.3384 -6.58204e-18)
(58.2628 18.3841 1.54492e-17)
(59.5788 19.447 9.46398e-19)
(60.8696 20.4987 1.12562e-18)
(62.2974 21.6317 -6.19715e-18)
(63.6408 22.9773 0)
(63.7725 23.6174 1.06934e-17)
(58.7826 22.1102 -5.69768e-18)
(34.3456 13.5563 0)
(39.0579 -0.00210058 7.40745e-21)
(40.9208 -0.0956728 -1.31418e-22)
(40.9587 0.120133 -1.13175e-18)
(41.0237 0.123513 0)
(41.0443 0.276284 -2.10252e-20)
(41.1056 0.358391 -6.96587e-19)
(41.1809 0.477743 0)
(41.2662 0.594425 8.3941e-19)
(41.3616 0.716386 -1.02003e-18)
(41.4622 0.850623 6.3437e-20)
(41.578 0.989457 1.01224e-18)
(41.7122 1.13699 -5.71665e-19)
(41.8626 1.28715 -6.90334e-19)
(42.0205 1.44866 0)
(42.1899 1.62221 0)
(42.3521 1.81121 0)
(42.5112 1.99774 -4.59096e-19)
(42.6955 2.17247 6.30951e-19)
(42.9281 2.38917 -8.65596e-19)
(43.1863 2.6054 3.87534e-20)
(43.4816 2.86261 -6.164e-20)
(43.8069 3.15303 -9.30831e-20)
(44.1831 3.46811 -2.24001e-19)
(44.5719 3.82111 -3.80235e-19)
(44.962 4.21932 0)
(45.4137 4.63091 4.57591e-19)
(45.9105 5.07747 -1.39447e-18)
(46.4139 5.5464 1.00278e-18)
(46.9175 6.03875 -6.12804e-19)
(47.4592 6.52975 3.75308e-19)
(48.0826 7.08261 -5.86536e-19)
(48.7739 7.70327 2.19437e-18)
(49.5271 8.40175 -2.63849e-18)
(50.4012 9.14415 3.6048e-18)
(51.3307 9.9013 1.58296e-18)
(52.1355 10.6735 -3.76337e-18)
(52.9965 11.451 4.72916e-18)
(53.9966 12.2974 -3.12853e-18)
(55.0653 13.1615 2.04495e-20)
(56.1761 14.0325 0)
(57.3491 14.9407 5.37229e-18)
(58.5936 15.8531 3.66367e-18)
(59.8779 16.7775 4.10129e-19)
(61.2602 17.6837 -1.04863e-17)
(62.8025 18.5501 -4.62834e-19)
(64.3537 19.5564 -7.34683e-18)
(65.4809 20.5899 0)
(65.1227 21.0813 1.17232e-17)
(58.6514 19.3158 -1.95853e-17)
(32.1086 10.6703 0)
(38.9828 -0.000503331 0)
(41.0239 -0.0873645 0)
(41.0564 0.145167 6.05648e-19)
(41.0923 0.142905 -3.71568e-20)
(41.1193 0.304424 6.53533e-19)
(41.1826 0.364003 7.21267e-19)
(41.2613 0.475482 0)
(41.3511 0.577452 -8.40939e-19)
(41.4535 0.679943 8.39653e-19)
(41.5625 0.790856 0)
(41.6861 0.906152 -1.47874e-18)
(41.8252 1.03223 -5.2203e-20)
(41.9791 1.16755 -6.18448e-20)
(42.1523 1.30626 6.89537e-20)
(42.3554 1.45163 0)
(42.5931 1.61263 0)
(42.8443 1.8088 3.57001e-19)
(43.105 2.01892 1.29943e-19)
(43.3801 2.23448 9.82339e-20)
(43.6879 2.47822 3.52566e-21)
(44.0172 2.7229 6.02492e-21)
(44.333 2.98812 -1.11275e-20)
(44.6904 3.26481 2.18832e-19)
(45.0931 3.55836 1.30227e-19)
(45.5014 3.88886 -4.06207e-19)
(45.9488 4.25193 -7.02592e-19)
(46.4615 4.64643 5.06219e-19)
(47.0281 5.07436 9.08734e-19)
(47.6411 5.55555 0)
(48.3102 6.11833 0)
(49.053 6.70003 0)
(49.8203 7.29286 -1.55334e-18)
(50.5985 7.86973 -1.14845e-18)
(51.3524 8.46928 -1.25399e-18)
(52.11 9.10385 1.81537e-18)
(53.0943 9.77224 2.26519e-18)
(54.1775 10.5052 -1.13359e-18)
(55.2629 11.2259 3.33947e-18)
(56.3945 11.9665 -1.96146e-18)
(57.5765 12.7253 -2.6393e-18)
(58.8358 13.4796 -3.2775e-18)
(60.1536 14.2567 3.6548e-18)
(61.5257 15.0176 0)
(62.8795 15.8057 5.93228e-18)
(64.2445 16.5641 -3.45225e-18)
(65.786 17.4475 4.1429e-18)
(66.6612 18.1335 0)
(65.8328 18.4185 -6.09668e-18)
(57.849 16.4356 3.59271e-18)
(29.1188 7.84256 0)
(38.9218 0.00688267 4.25567e-19)
(41.1223 -0.0725509 0)
(41.1894 0.14738 1.04867e-18)
(41.2381 0.133069 -5.53095e-19)
(41.2771 0.307731 -6.34032e-19)
(41.3436 0.368984 2.04474e-20)
(41.4297 0.483252 -2.27526e-20)
(41.5249 0.586021 0)
(41.6371 0.691507 -8.16675e-19)
(41.7605 0.8045 3.82779e-19)
(41.8975 0.918833 4.6484e-19)
(42.0534 1.03381 -5.0787e-19)
(42.2238 1.15258 2.19145e-19)
(42.4025 1.28356 5.63144e-20)
(42.5916 1.41765 -2.92283e-20)
(42.7883 1.54917 0)
(43.0035 1.67617 2.15614e-19)
(43.2568 1.82924 -1.77714e-19)
(43.545 1.98359 9.29298e-20)
(43.8727 2.15489 -1.26568e-20)
(44.2614 2.35496 1.27988e-20)
(44.6714 2.58532 0)
(45.1035 2.8462 7.86116e-20)
(45.5728 3.13065 3.70822e-19)
(46.0668 3.43372 5.00982e-19)
(46.6135 3.77289 7.06416e-19)
(47.211 4.14029 0)
(47.8217 4.53116 -6.47366e-19)
(48.4502 4.92775 -1.50273e-18)
(49.1025 5.30618 8.84575e-19)
(49.8146 5.72324 -1.99802e-18)
(50.5962 6.18965 -1.03545e-18)
(51.433 6.73786 1.95795e-18)
(52.4056 7.32008 -7.3331e-19)
(53.5139 7.92533 -1.83136e-18)
(54.4988 8.55697 -1.04282e-18)
(55.4472 9.15384 -1.42209e-18)
(56.5123 9.7904 0)
(57.6601 10.4504 -2.37536e-18)
(58.8634 11.1182 5.27565e-18)
(60.098 11.7886 3.30411e-18)
(61.3841 12.4552 -3.95706e-18)
(62.7228 13.1126 5.23138e-18)
(64.1947 13.712 -2.73317e-18)
(65.7452 14.2989 7.27423e-18)
(67.2679 15.0645 1.63625e-19)
(67.807 15.5455 0)
(66.176 15.686 1.26607e-17)
(56.1698 13.5457 -1.0842e-17)
(25.4581 5.23382 -4.16063e-18)
(38.8674 0.00777228 -4.25921e-19)
(41.2294 -0.0789069 4.41629e-19)
(41.282 0.165053 -5.08667e-19)
(41.3182 0.137563 5.45812e-19)
(41.3558 0.306734 2.88505e-19)
(41.4216 0.350289 1.97378e-20)
(41.5049 0.447732 -1.0783e-20)
(41.5977 0.525323 0)
(41.7089 0.609577 3.44061e-19)
(41.8331 0.69353 -5.7587e-19)
(41.9659 0.78571 0)
(42.117 0.876724 2.41067e-20)
(42.3048 0.965008 -7.64528e-20)
(42.5112 1.06118 -1.52779e-19)
(42.7621 1.15997 1.78085e-19)
(43.0335 1.28823 -6.35398e-21)
(43.3126 1.41833 -1.68727e-20)
(43.6018 1.56301 0)
(43.9184 1.72974 4.56411e-20)
(44.2632 1.89183 1.08218e-19)
(44.6337 2.05592 -1.42565e-20)
(45.0411 2.22828 0)
(45.4833 2.42337 0)
(45.9671 2.64376 -1.76316e-19)
(46.4727 2.88804 9.90327e-20)
(47.0079 3.15638 -7.6244e-19)
(47.6109 3.44861 3.21467e-19)
(48.277 3.75805 -1.94193e-19)
(48.9747 4.13045 7.16235e-19)
(49.7491 4.58174 3.23249e-19)
(50.6092 5.0585 1.19288e-18)
(51.4944 5.54182 -1.21716e-18)
(52.4091 5.9915 7.85414e-19)
(53.3029 6.45874 -8.96155e-19)
(54.1109 6.94033 -1.12622e-18)
(55.0926 7.41713 -1.2718e-18)
(56.2473 7.9595 0)
(57.4395 8.5084 3.10593e-18)
(58.6567 9.0415 -1.1701e-18)
(59.8834 9.55724 -2.88588e-18)
(61.1934 10.0802 3.47993e-18)
(62.5593 10.594 -1.30907e-19)
(63.944 11.1005 -2.76298e-18)
(65.2632 11.6362 -4.69636e-20)
(66.7026 12.1552 -3.70543e-18)
(68.053 12.734 -8.86411e-18)
(68.2719 12.9554 5.13716e-18)
(65.6668 12.9167 0)
(53.5871 10.6342 -7.68641e-18)
(20.8515 2.7472 1.47157e-17)
(38.815 0.00368073 -7.72803e-22)
(41.3454 -0.0790507 -4.44553e-19)
(41.4293 0.133682 1.14745e-19)
(41.4724 0.104716 4.11971e-21)
(41.514 0.275519 -2.88442e-19)
(41.5873 0.31984 0)
(41.6685 0.420366 0)
(41.7644 0.501027 1.02887e-20)
(41.8835 0.576778 -5.52018e-19)
(42.0199 0.652003 1.90204e-19)
(42.165 0.724831 -1.09731e-20)
(42.3194 0.800891 2.29869e-20)
(42.4915 0.879351 -1.28272e-19)
(42.6736 0.958633 1.14129e-19)
(42.8707 1.02628 -2.2259e-19)
(43.1124 1.09003 2.21786e-20)
(43.3782 1.16064 -8.50435e-21)
(43.6845 1.23133 3.66324e-21)
(44.0179 1.31609 -5.06137e-20)
(44.4073 1.42872 -6.53853e-20)
(44.8439 1.557 9.00768e-21)
(45.3064 1.70712 -3.36038e-20)
(45.8033 1.86811 0)
(46.3366 2.04777 -2.41706e-19)
(46.9196 2.24841 9.51572e-21)
(47.5591 2.48219 8.60015e-20)
(48.2275 2.75081 8.4858e-20)
(48.932 3.04465 2.47311e-19)
(49.6733 3.32363 0)
(50.4161 3.5766 2.04371e-19)
(51.2122 3.8444 1.19538e-18)
(52.0793 4.16019 1.15782e-18)
(52.9741 4.55579 -6.65409e-19)
(53.9614 4.97334 1.39354e-18)
(55.1579 5.40695 -1.14852e-18)
(56.311 5.8884 -7.32366e-19)
(57.3641 6.33143 0)
(58.4575 6.76099 -2.06904e-18)
(59.6132 7.22461 -1.35667e-18)
(60.8488 7.70867 1.51559e-18)
(62.0969 8.16492 -1.8641e-18)
(63.3695 8.62691 2.25477e-18)
(64.7079 9.03681 0)
(66.2043 9.39389 1.68385e-18)
(67.7238 9.81022 0)
(68.716 10.1904 2.37601e-18)
(68.535 10.3663 -5.64728e-18)
(64.6861 10.1859 3.23981e-18)
(50.0135 7.81383 0)
(15.7485 0.747025 1.0786e-18)
(38.7505 -0.0157192 -9.35749e-23)
(41.454 -0.101333 -1.0173e-22)
(41.5063 0.132567 -1.1825e-19)
(41.5474 0.0830548 -4.85045e-22)
(41.5741 0.242975 -3.67189e-21)
(41.6384 0.257199 -5.55417e-22)
(41.7118 0.342795 6.18268e-22)
(41.798 0.398485 -1.22696e-21)
(41.9097 0.451018 1.74825e-19)
(42.0403 0.507952 2.64012e-21)
(42.1811 0.561035 1.26546e-21)
(42.3498 0.602745 -2.62644e-21)
(42.5491 0.645856 -8.30173e-20)
(42.7761 0.684931 7.63835e-20)
(43.0182 0.740767 6.58622e-20)
(43.2908 0.790229 -2.26406e-20)
(43.5765 0.853262 8.15782e-21)
(43.8912 0.923659 -6.66057e-22)
(44.2291 0.984185 -1.53628e-21)
(44.5964 1.04275 0)
(45.0231 1.10588 -4.15754e-21)
(45.4906 1.18503 -3.24835e-21)
(45.993 1.279 3.63123e-21)
(46.539 1.39515 0)
(47.1077 1.53076 0)
(47.7238 1.68327 2.84889e-19)
(48.4132 1.8473 0)
(49.1476 2.02013 -2.47666e-19)
(49.9219 2.27349 0)
(50.7882 2.60276 1.34377e-20)
(51.7261 2.96873 -5.38114e-19)
(52.6863 3.32432 3.87497e-20)
(53.6882 3.63445 -8.36412e-19)
(54.7229 3.96152 7.5753e-20)
(55.6146 4.30871 5.1681e-19)
(56.5576 4.62348 8.24258e-19)
(57.6826 4.97557 -2.94183e-20)
(58.9161 5.37641 0)
(60.1897 5.73958 -2.16513e-20)
(61.4335 6.05376 2.61404e-20)
(62.7362 6.3741 0)
(64.0889 6.65644 -3.77631e-20)
(65.4277 6.96357 -1.85522e-19)
(66.694 7.27701 -1.47896e-18)
(68.1957 7.61426 -3.0972e-20)
(68.8514 7.77085 0)
(68.1477 7.7812 0)
(62.6497 7.40221 4.83401e-19)
(45.5332 5.08244 -4.79187e-19)
(10.6182 -0.687835 1.07752e-18)
(38.6663 -0.0173468 -1.88946e-19)
(41.5521 -0.115862 -2.0587e-19)
(41.6288 0.0764993 -1.11807e-19)
(41.6805 0.0263942 -1.24536e-19)
(41.7079 0.187652 -1.2422e-19)
(41.775 0.197609 1.3668e-19)
(41.8465 0.279833 0)
(41.9303 0.33543 0)
(42.0447 0.377359 -8.06268e-20)
(42.1755 0.413567 -2.6417e-21)
(42.3044 0.456894 7.65857e-20)
(42.4504 0.489597 5.33079e-21)
(42.6163 0.515935 6.76303e-20)
(42.7982 0.527735 -5.63206e-20)
(43.0126 0.528586 -4.5891e-20)
(43.266 0.518949 0)
(43.5534 0.501033 0)
(43.8778 0.493262 6.65965e-22)
(44.243 0.505242 1.53607e-21)
(44.6475 0.519306 -9.6936e-20)
(45.1009 0.547334 4.15694e-21)
(45.5988 0.577172 0)
(46.1403 0.623028 0)
(46.7344 0.680123 -5.29446e-20)
(47.3878 0.754732 -2.73936e-19)
(48.0775 0.867316 8.80799e-20)
(48.7989 1.02167 0)
(49.5796 1.20031 -2.84283e-19)
(50.396 1.3423 0)
(51.2016 1.4548 -1.34351e-20)
(52.0751 1.57014 0)
(53.0236 1.74834 0)
(53.987 2.00848 2.24803e-19)
(54.9543 2.28463 2.69096e-19)
(56.1387 2.55451 0)
(57.4027 2.87866 0)
(58.584 3.19473 2.94097e-20)
(59.7159 3.45439 0)
(60.8474 3.74067 2.16436e-20)
(62.0512 4.05584 -8.86022e-19)
(63.2804 4.34838 1.0595e-18)
(64.5188 4.65265 1.22683e-19)
(65.8289 4.86461 9.78406e-20)
(67.2895 5.08285 -1.65125e-18)
(68.5304 5.32535 -1.00452e-18)
(68.7258 5.39529 5.88692e-18)
(67.1799 5.32033 -2.80572e-18)
(59.8991 4.73966 -3.48399e-18)
(40.2263 2.48432 2.8532e-18)
(6.99826 -1.37148 0)
(38.5589 -0.043736 1.88134e-19)
(41.631 -0.159726 -2.03102e-19)
(41.6877 0.0606459 1.09957e-19)
(41.7267 -0.0088767 -1.21696e-19)
(41.7394 0.128662 1.32521e-19)
(41.7948 0.116091 -1.4113e-19)
(41.8553 0.185488 -9.00608e-21)
(41.9353 0.204344 1.00293e-20)
(42.0305 0.24019 7.10498e-20)
(42.153 0.262867 1.06317e-20)
(42.2906 0.269438 -8.13095e-20)
(42.4448 0.272909 -1.54718e-19)
(42.6304 0.266857 6.9582e-20)
(42.8313 0.262828 5.47687e-20)
(43.0519 0.250672 1.35465e-19)
(43.3068 0.23519 -8.69062e-23)
(43.5861 0.211915 9.7009e-23)
(43.8985 0.167813 6.27271e-20)
(44.2336 0.116721 1.91038e-20)
(44.6266 0.0628956 7.54826e-20)
(45.0769 0.0171192 0)
(45.5629 -0.0206456 0)
(46.0975 -0.0493695 0)
(46.6721 -0.0530906 0)
(47.2952 -0.0471201 2.63014e-19)
(47.984 -0.0364205 -7.15076e-19)
(48.7218 -0.0314543 0)
(49.5091 0.00306302 8.73712e-19)
(50.3553 0.133632 0)
(51.2972 0.341158 0)
(52.2835 0.588141 -1.17405e-18)
(53.2868 0.811739 7.57259e-19)
(54.3237 0.987129 -1.78036e-18)
(55.4679 1.17387 5.08623e-19)
(56.4919 1.39904 0)
(57.4318 1.59682 0)
(58.4711 1.79277 1.03132e-18)
(59.6691 2.05556 -3.5728e-18)
(60.9579 2.30269 0)
(62.2204 2.48788 -2.69393e-18)
(63.4834 2.64211 4.16423e-18)
(64.7725 2.75436 -4.97234e-18)
(66.0307 2.92572 2.86522e-18)
(67.3881 3.09309 -3.49932e-18)
(68.2759 3.15795 8.6873e-18)
(68.2957 3.103 -8.07683e-18)
(65.6188 2.9596 5.85333e-18)
(55.919 2.34724 -1.32467e-17)
(33.3115 0.197051 1.60214e-17)
(4.1374 -1.28987 -1.03435e-17)
(38.4268 -0.0244168 3.80729e-19)
(41.6828 -0.174959 -4.52357e-21)
(41.7826 -0.00461511 0)
(41.8276 -0.0826053 2.43887e-19)
(41.8392 0.0631918 5.4939e-19)
(41.9014 0.045985 -1.79729e-20)
(41.9539 0.123329 0)
(42.0196 0.145753 0)
(42.1121 0.158392 1.9198e-20)
(42.2076 0.178424 -2.14019e-20)
(42.312 0.180378 3.30053e-19)
(42.4336 0.167759 -1.63386e-19)
(42.5761 0.134412 -1.40967e-19)
(42.7435 0.0835279 1.24276e-19)
(42.9343 0.0165986 -8.44104e-20)
(43.1732 -0.0731553 -2.68091e-22)
(43.4498 -0.159821 -2.51574e-20)
(43.7724 -0.24555 -1.80568e-19)
(44.1198 -0.33837 0)
(44.5081 -0.433123 2.01925e-19)
(44.9663 -0.542666 3.07217e-19)
(45.4776 -0.642212 0)
(46.0436 -0.737414 -6.15211e-19)
(46.6697 -0.824799 0)
(47.3503 -0.882851 0)
(48.0756 -0.898013 7.12918e-19)
(48.8494 -0.863574 4.3597e-19)
(49.6799 -0.833382 1.17276e-18)
(50.5423 -0.84282 0)
(51.4017 -0.875264 0)
(52.3411 -0.898882 5.42127e-19)
(53.3591 -0.853916 7.01651e-19)
(54.4034 -0.728551 2.79085e-18)
(55.3722 -0.567882 1.02186e-19)
(56.4755 -0.424554 1.19241e-19)
(57.7615 -0.250564 -3.33178e-18)
(59.0675 -0.0480266 -1.60206e-19)
(60.2811 0.107936 4.75234e-18)
(61.4048 0.245606 2.94924e-18)
(62.5508 0.418182 1.73936e-18)
(63.7485 0.610519 4.33894e-18)
(64.9422 0.792172 3.166e-19)
(66.2422 0.89723 -5.69624e-18)
(67.5586 1.0699 -3.34693e-18)
(67.9945 1.16528 -1.00127e-17)
(67.2296 1.18439 1.21074e-17)
(62.9918 1.07958 -5.51975e-18)
(50.6122 0.440054 0)
(25.5646 -1.3434 0)
(2.07619 -0.852839 2.03632e-18)
(38.2796 -0.04874 -1.15653e-18)
(41.709 -0.224829 -4.3815e-19)
(41.8084 -0.0338263 4.65665e-19)
(41.8411 -0.127949 -1.52926e-20)
(41.8452 -0.00148733 -1.07456e-18)
(41.8983 -0.0383673 1.82682e-20)
(41.9359 0.0253023 0)
(42.0065 0.0315568 6.48516e-19)
(42.0807 0.0445012 1.97236e-20)
(42.1757 0.0427306 -2.08897e-21)
(42.2816 0.0262496 -6.97915e-19)
(42.3929 -0.00282251 2.98757e-19)
(42.5316 -0.0455679 4.08837e-21)
(42.6886 -0.106791 -1.0556e-19)
(42.8556 -0.174516 0)
(43.0579 -0.273857 0)
(43.2955 -0.406103 1.79467e-20)
(43.5754 -0.55623 1.25937e-19)
(43.9071 -0.715362 0)
(44.279 -0.8769 -2.01289e-19)
(44.7058 -1.03573 -3.06193e-19)
(45.1898 -1.20914 -1.23469e-19)
(45.7268 -1.36949 1.53532e-19)
(46.3187 -1.52419 5.87989e-19)
(46.9694 -1.68514 2.54844e-19)
(47.686 -1.85096 3.91641e-19)
(48.4541 -2.00969 -1.3709e-18)
(49.2963 -2.10255 -1.19411e-18)
(50.2138 -2.09687 1.52406e-18)
(51.2067 -2.02878 -1.92272e-18)
(52.2357 -1.91243 0)
(53.2889 -1.80715 0)
(54.3387 -1.7407 1.11177e-19)
(55.5316 -1.68787 -2.1627e-18)
(56.716 -1.58587 2.77635e-18)
(57.7352 -1.47257 5.12878e-18)
(58.7081 -1.38283 -1.95729e-18)
(59.8215 -1.25488 -4.93025e-18)
(61.0884 -1.07872 -5.88388e-18)
(62.3543 -0.954933 -3.6493e-18)
(63.5709 -0.898069 -2.71128e-19)
(64.8135 -0.848836 4.84279e-18)
(66.0394 -0.761476 0)
(67.1081 -0.72545 3.25965e-18)
(67.3093 -0.753348 3.90619e-18)
(65.9299 -0.713204 4.75928e-18)
(59.8245 -0.632172 1.66937e-17)
(44.2465 -0.854219 -6.19093e-18)
(15.5403 -2.00599 0)
(0.785468 -0.306537 0)
(38.1042 -0.0320616 -2.5743e-20)
(41.6998 -0.254289 8.4931e-19)
(41.8606 -0.09301 -4.79472e-19)
(41.8976 -0.196647 1.03741e-18)
(41.9248 -0.0611784 5.76896e-19)
(41.9771 -0.0936384 -7.63136e-22)
(42.0038 -0.0228625 -1.99799e-20)
(42.0459 -0.0147851 -6.08401e-19)
(42.1018 -0.00134285 -4.44184e-20)
(42.1661 -0.00396341 -4.20112e-20)
(42.2384 -0.0281963 3.50509e-19)
(42.3133 -0.0716207 4.65334e-20)
(42.4096 -0.141506 3.51131e-19)
(42.534 -0.243856 3.19081e-19)
(42.6772 -0.369199 -2.27531e-20)
(42.8538 -0.501964 2.53808e-20)
(43.0754 -0.659229 0)
(43.3273 -0.845016 -5.13176e-20)
(43.6255 -1.05413 0)
(43.9837 -1.29107 0)
(44.4109 -1.53375 0)
(44.9003 -1.78152 -2.3395e-19)
(45.457 -2.03296 8.55808e-19)
(46.0863 -2.26194 -8.11807e-19)
(46.7823 -2.45622 0)
(47.5354 -2.61202 -3.84583e-19)
(48.3286 -2.74703 -1.38768e-18)
(49.1907 -2.89682 -2.34825e-18)
(50.0843 -3.07317 -2.32152e-18)
(51.0126 -3.23439 1.9264e-18)
(52.0098 -3.39068 -2.40456e-18)
(53.0723 -3.49023 1.41809e-18)
(54.2137 -3.50413 3.68722e-18)
(55.2641 -3.44178 0)
(56.2917 -3.38961 2.79682e-18)
(57.5227 -3.33809 -6.85492e-18)
(58.9076 -3.24243 -1.6556e-19)
(60.2404 -3.13972 4.87803e-18)
(61.4072 -3.0967 2.92754e-18)
(62.5464 -3.02743 0)
(63.736 -2.90089 4.19883e-18)
(64.8907 -2.79111 -5.10456e-18)
(66.2473 -2.64646 1.11192e-17)
(66.8584 -2.47437 0)
(66.4733 -2.34273 -1.6299e-17)
(63.6837 -2.10568 4.47794e-18)
(55.0129 -1.8689 -5.4145e-18)
(35.8199 -1.835 -6.14428e-18)
(9.05802 -1.82106 1.3655e-17)
(0.114633 0.258869 1.61662e-22)
(37.8877 -0.0776197 8.02426e-19)
(41.6799 -0.317165 -9.04446e-19)
(41.8601 -0.154445 9.91494e-19)
(41.8795 -0.243744 -2.10783e-18)
(41.9056 -0.129252 1.2001e-18)
(41.9608 -0.183795 -7.62918e-20)
(41.99 -0.111046 7.11019e-19)
(42.049 -0.116416 0)
(42.0882 -0.0929595 7.50141e-19)