/*--------------------------------*- C++ -*----------------------------------*\
| =========                 |                                                 |
| \\      /  F ield         | OpenFOAM: The Open Source CFD Toolbox           |
|  \\    /   O peration     | Version:  v1912                                 |
|   \\  /    A nd           | Website:  www.openfoam.com                      |
|    \\/     M anipulation  |                                                 |
\*---------------------------------------------------------------------------*/
FoamFile
{
    version     2.0;
    format      ascii;
    class       volScalarField;
    location    "0.32";
    object      p;
}
// * * * * * * * * * * * * * * * * * * * * * * * * * * * * * * * * * * * * * //

dimensions      [0 2 -2 0 0 0 0];


internalField   nonuniform List<scalar> 
6600
(
146.638
142.345
140.348
138.952
138.18
137.834
137.535
137.299
137.171
137.205
137.469
137.965
138.595
139.296
140.082
140.953
141.912
142.944
143.998
145.291
146.518
147.806
149.158
150.554
151.865
153.202
154.503
155.446
156.014
156.052
155.383
153.505
150.659
146.732
141.261
133.85
124.06
111.445
95.5219
75.6227
51.161
21.537
-13.8295
-56.3036
-106.504
-165.335
-232.914
-309.897
-399.975
-498.055
144.255
140.159
138.893
137.562
136.686
136.164
135.68
135.291
135.041
134.975
135.072
135.307
135.635
136.011
136.445
136.932
137.504
138.134
138.589
139.054
139.631
140.199
140.604
140.861
141.052
141.116
141.098
140.765
139.717
137.863
134.96
130.987
125.816
119.218
110.766
100.107
86.8132
70.3528
50.2476
25.8744
-3.45916
-38.4854
-79.3818
-127.953
-184.587
-250.323
-325.123
-409.149
-504.392
-606.182
141.223
137.335
136.784
135.559
134.674
134.03
133.417
132.927
132.553
132.311
132.223
132.225
132.249
132.27
132.316
132.32
132.339
132.434
132.471
132.359
132.237
132.04
131.613
130.938
130.028
128.751
126.863
124.654
121.734
117.959
113.021
106.855
99.1454
89.6322
77.9731
63.7882
46.7428
26.1953
1.70771
-27.4093
-61.8081
-102.138
-148.976
-203.365
-265.97
-337.827
-418.953
-508.398
-605.501
-705.348
137.903
134.274
134.282
132.992
132.155
131.399
130.655
130.029
129.57
129.145
128.787
128.5
128.22
127.881
127.545
127.155
126.674
126.113
125.359
124.502
123.695
122.715
121.264
119.467
117.324
114.745
111.496
107.312
102.294
96.2645
89.187
80.5519
70.0936
57.5197
42.5228
24.7444
3.69926
-21.1255
-50.2009
-84.08
-123.417
-168.914
-221.147
-280.728
-348.376
-425.094
-510.828
-603.624
-700.81
-796.043
134.541
131.011
131.408
129.812
129.084
128.305
127.465
126.722
126.054
125.388
124.732
124.079
123.387
122.597
121.725
120.776
119.725
118.662
117.344
115.683
113.855
111.82
109.324
106.363
102.885
98.7053
93.8252
87.8891
80.9297
72.7411
63.0914
51.6978
38.3018
22.5627
4.12949
-17.3547
-42.3419
-71.2887
-104.672
-143.056
-186.982
-237.005
-293.658
-357.424
-428.857
-508.81
-597.166
-691.552
-787.403
-876.454
131.142
127.642
128.187
126.189
125.631
124.749
123.811
122.909
122.053
121.139
120.156
119.111
118.002
116.772
115.397
113.837
111.998
110.021
107.9
105.469
102.714
99.4442
95.6254
91.2632
86.265
80.5129
73.8943
66.1713
57.1491
46.6918
34.4629
20.2899
3.91226
-14.9565
-36.7115
-61.7447
-90.4184
-123.178
-160.488
-202.784
-250.52
-304.181
-364.129
-430.724
-504.374
-585.811
-675.026
-769.643
-863.011
-943.921
127.558
124.109
124.639
122.43
121.912
120.929
119.883
118.801
117.66
116.456
115.139
113.664
112.028
110.231
108.266
106.101
103.662
100.879
97.7624
94.2473
90.3246
85.8312
80.6629
74.8358
68.2541
60.6656
51.9535
42.1529
30.9846
18.1362
3.40296
-13.3883
-32.5649
-54.4613
-79.3574
-107.599
-139.556
-175.587
-216.071
-261.444
-312.069
-368.243
-430.259
-498.396
-572.883
-654.251
-742.771
-836.019
-925.261
-995.92
123.829
120.349
120.852
118.634
118.005
116.815
115.608
114.374
113.014
111.51
109.872
108.048
105.94
103.535
100.839
97.8235
94.486
90.841
86.7525
82.1747
77.0262
71.1338
64.4772
57.0274
48.6634
39.3215
28.7611
16.7585
3.24831
-11.9258
-29.0206
-48.3828
-70.231
-94.8131
-122.475
-153.504
-188.158
-226.806
-269.8
-317.389
-369.838
-427.426
-490.315
-558.677
-632.745
-712.949
-799.214
-889.244
-973.094
-1031.67
119.499
116.577
116.785
114.606
113.939
112.539
111.128
109.624
107.95
106.07
103.993
101.678
99.0842
96.1703
92.8809
89.1818
84.9529
80.2312
74.9479
69.0475
62.6192
55.4289
47.3602
38.3861
28.3537
17.0327
4.4442
-9.52911
-25.1678
-42.6507
-62.1378
-83.8708
-108.102
-135.108
-165.102
-198.349
-235.139
-275.699
-320.267
-369.125
-422.459
-480.403
-543.067
-610.564
-683.087
-761.071
-844.128
-929.405
-1006.09
-1051.67
115.401
112.719
112.59
110.398
109.594
107.995
106.421
104.694
102.746
100.511
97.9484
95.02
91.729
88.0395
83.9326
79.4036
74.3589
68.7084
62.4068
55.3127
47.4127
38.7218
29.1248
18.479
6.71779
-6.19781
-20.5604
-36.486
-54.0777
-73.5353
-95.0869
-118.944
-145.257
-174.209
-206.046
-240.986
-279.2
-320.94
-366.407
-415.694
-468.93
-526.26
-587.756
-653.428
-723.385
-798.072
-877.241
-956.886
-1025.17
-1058.48
110.49
108.397
108.263
106.139
105.242
103.403
101.585
99.509
97.1287
94.437
91.3866
87.9385
84.0428
79.6479
74.695
69.1428
63.0048
56.2246
48.7139
40.4655
31.3915
21.3404
10.307
-1.74094
-15.0711
-29.8489
-45.9719
-63.62
-82.9778
-104.233
-127.561
-153.095
-180.997
-211.454
-244.627
-280.653
-319.71
-361.933
-407.439
-456.355
-508.739
-564.621
-624.021
-687.007
-753.625
-824.098
-898.61
-972.215
-1032.34
-1055.62
105.888
104.155
103.883
101.76
100.763
98.8172
96.832
94.4704
91.7118
88.5283
84.8694
80.7128
76.034
70.8256
65.0558
58.623
51.4595
43.5892
34.9266
25.3356
14.911
3.54151
-8.94778
-22.6203
-37.4124
-53.4768
-71.1055
-90.3385
-111.272
-134.014
-158.7
-185.538
-214.654
-246.135
-280.088
-316.66
-355.923
-397.98
-442.93
-490.788
-541.562
-595.268
-651.897
-711.393
-773.803
-839.477
-907.791
-974.971
-1029.11
-1046.45
100.829
99.5949
99.5537
97.6362
96.5316
94.3384
92.1651
89.5344
86.4166
82.8026
78.6958
74
68.6615
62.6093
55.8517
48.4159
40.2195
31.1965
21.3783
10.6606
-1.0983
-13.8652
-27.6443
-42.543
-58.8402
-76.5253
-95.5564
-116.092
-138.259
-162.213
-188.078
-215.894
-245.754
-277.801
-312.131
-348.749
-387.729
-429.116
-472.886
-519.04
-567.602
-618.531
-671.726
-727.095
-784.407
-844.237
-905.007
-963.34
-1008.51
-1024.91
96.4388
95.0851
95.0831
93.4418
92.4445
90.3183
88.0035
85.1518
81.7784
77.7951
73.1265
67.8076
61.8404
55.1587
47.6444
39.2865
30.0822
19.9807
8.89854
-3.10145
-16.0416
-30.0913
-45.3483
-61.73
-79.2158
-98.0003
-118.249
-140.008
-163.348
-188.315
-214.953
-243.399
-273.765
-306.072
-340.336
-376.604
-414.837
-455.043
-497.259
-541.378
-587.262
-634.851
-684.068
-734.708
-786.615
-839.338
-890.368
-935.629
-965.652
-979.807
92.577
91.5892
91.3576
89.6853
88.76
86.6824
84.4254
81.471
77.8833
73.6655
68.7421
62.9819
56.3398
48.8656
40.5728
31.3776
21.2274
10.1414
-1.93632
-15.1547
-29.4227
-44.6927
-61.03
-78.5933
-97.4882
-117.636
-139.028
-161.751
-185.917
-211.628
-238.975
-267.955
-298.535
-330.773
-364.721
-400.355
-437.662
-476.542
-516.84
-558.462
-601.361
-645.382
-690.186
-735.348
-781.388
-826.181
-866.502
-896.268
-908.327
-917.648
88.727
88.2911
88.3673
86.945
85.9928
83.9837
81.746
78.8013
75.1619
70.6845
65.4132
59.3362
52.3599
44.3642
35.3439
25.3249
14.2681
2.12533
-11.0372
-25.2538
-40.6361
-57.2021
-74.8973
-93.6552
-113.522
-134.637
-157.029
-180.71
-205.733
-232.146
-259.928
-289.099
-319.752
-351.878
-385.396
-420.233
-456.292
-493.542
-531.933
-571.222
-611.097
-651.401
-691.858
-732.205
-771.554
-808.106
-839.004
-858.856
-863.657
-866.777
85.0736
84.9238
85.4129
84.5877
83.9943
82.2689
80.2322
77.3908
73.7854
69.3446
63.8483
57.3575
49.9092
41.4682
31.8937
21.1734
9.33703
-3.66059
-17.8762
-33.2254
-49.6548
-67.1811
-85.9052
-105.794
-126.891
-149.109
-172.474
-196.982
-222.661
-249.535
-277.677
-307.125
-337.772
-369.571
-402.535
-436.611
-471.692
-507.587
-544.056
-580.901
-617.964
-655.005
-691.488
-727.384
-761.23
-790.777
-813.062
-825.385
-833.641
-834.156
82.0181
82.4895
82.9672
82.5362
82.5081
81.3819
79.7936
77.2687
73.826
69.4742
64.0909
57.5676
49.8008
40.8713
30.7655
19.3975
6.77424
-7.07549
-22.1405
-38.5068
-56.1121
-74.8674
-94.709
-115.685
-137.735
-160.89
-185.084
-210.35
-236.707
-264.148
-292.638
-322.127
-352.679
-384.278
-416.823
-450.197
-484.218
-518.727
-553.634
-588.746
-623.685
-658.022
-691.666
-723.671
-752.705
-776.949
-793.046
-798.713
-804.329
-806.191
78.3297
79.6825
80.998
81.3572
81.766
81.3296
80.4109
78.53
75.4742
71.2789
66.2136
59.8583
52.0716
42.8256
32.2243
20.2683
6.92693
-7.78311
-23.8113
-41.1175
-59.6865
-79.5095
-100.484
-122.504
-145.631
-169.815
-194.998
-221.122
-248.145
-276.055
-304.851
-334.568
-365.166
-396.575
-428.725
-461.534
-494.934
-528.708
-562.506
-596.061
-629.38
-662.167
-693.526
-722.241
-747.371
-765.829
-775.195
-781.266
-782.152
-785.135
74.0551
76.1707
78.4238
80.0325
81.5408
82.0558
82.0351
80.9453
78.768
75.2228
70.4391
64.2883
56.6901
47.4304
36.4939
23.9983
9.98193
-5.51579
-22.4894
-40.8413
-60.5288
-81.4435
-103.62
-126.951
-151.255
-176.448
-202.554
-229.466
-257.169
-285.662
-314.916
-344.871
-375.505
-406.844
-438.864
-471.453
-504.392
-537.483
-570.622
-603.767
-636.589
-667.885
-696.799
-723.016
-744.403
-758.036
-762.683
-766.585
-767.673
-769.812
69.1965
72.5757
75.4624
78.0666
80.9799
82.9357
84.1958
84.2756
83.4536
81.1087
76.869
71.0191
63.593
54.4708
43.5175
30.7218
16.1663
-0.119569
-18.0037
-37.4309
-58.2577
-80.4194
-103.794
-128.278
-153.838
-180.35
-207.582
-235.551
-264.183
-293.385
-323.147
-353.462
-384.356
-415.798
-447.759
-480.166
-512.999
-546.144
-579.373
-612.406
-644.26
-674.506
-702.205
-725.883
-742.285
-748.876
-754.438
-755.61
-757.721
-758.83
62.503
67.7566
71.7052
75.5012
79.6584
83.3033
86.411
88.1938
88.815
87.8594
84.9695
80.0605
73.0576
64.0946
53.1505
40.1475
25.1857
8.29445
-10.4517
-30.9626
-53.0578
-76.5258
-101.319
-127.311
-154.257
-182.035
-210.65
-239.834
-269.441
-299.505
-329.972
-360.807
-391.999
-423.609
-455.69
-488.291
-521.26
-554.444
-587.751
-621.13
-653.703
-683.205
-708.862
-729.168
-741.03
-744.258
-745.867
-747.875
-750.477
-751.364
53.6294
60.5321
65.7836
71.4856
77.4127
82.8352
87.8676
91.8012
94.2359
94.9905
93.7785
90.3189
84.4827
76.2022
65.5534
52.5109
37.1375
19.6168
0.0498643
-21.4163
-44.7094
-69.655
-95.9305
-123.456
-152.155
-181.691
-211.769
-242.298
-273.246
-304.425
-335.757
-367.262
-398.933
-430.832
-463.079
-495.712
-528.91
-562.746
-597.051
-630.952
-663.503
-692.791
-716.31
-731.028
-737.103
-742.626
-741.604
-743.452
-745.54
-746.274
43.4883
51.8452
57.6279
64.8396
73.0392
80.7721
88.1905
94.6421
99.6655
102.805
103.58
101.767
97.3401
90.1121
80.0588
67.2792
51.8121
33.7916
13.4041
-9.1645
-33.7267
-60.0514
-88.1113
-117.457
-147.694
-178.915
-210.919
-243.353
-275.913
-308.446
-340.896
-373.201
-405.433
-437.634
-469.973
-502.786
-536.153
-570.292
-605.128
-639.884
-673.41
-703.624
-724.662
-732.09
-735.126
-735.631
-737.957
-739.923
-741.597
-742.314
31.6698
41.783
47.6076
56.1548
66.0883
76.069
86.1614
95.4759
103.461
109.421
112.927
113.674
111.287
105.665
96.6802
84.398
68.9829
50.6383
29.5595
6.00064
-19.8803
-47.8206
-77.4009
-108.721
-141.469
-174.841
-208.746
-243.111
-277.582
-311.838
-345.66
-379.031
-411.935
-444.598
-477.113
-509.565
-542.7
-577.064
-612.644
-648.712
-682.986
-712.037
-730.866
-735.783
-736.206
-734.994
-736.378
-737.462
-738.421
-738.882
17.9258
30.0306
35.326
45.1618
56.2786
68.3905
81.3467
93.9938
105.598
115.252
122.135
125.714
125.777
122.142
114.631
103.266
88.2594
69.796
48.1377
23.5668
-3.54904
-33.1316
-64.7974
-97.9505
-132.515
-168.462
-205.058
-241.826
-278.539
-314.866
-350.482
-385.107
-418.858
-451.766
-484.207
-516.622
-549.188
-582.558
-617.563
-654.425
-690.735
-717.908
-729
-735.708
-734.371
-734.373
-734.682
-735.256
-735.822
-735.92
2.94557
16.951
21.4486
32.2177
43.7631
57.2621
72.669
88.5858
103.97
117.709
128.927
136.703
140.277
139.201
133.695
123.67
109.425
91.1313
69.1292
43.8245
15.3978
-15.7207
-49.3137
-85.2884
-122.67
-160.96
-200.126
-239.67
-279.058
-317.872
-355.588
-391.961
-426.769
-460.243
-492.648
-524.149
-555.316
-586.564
-619.774
-657.448
-694.033
-718.644
-726.89
-729.659
-730.993
-732.381
-733.176
-733.607
-733.884
-733.756
-12.1426
3.01781
5.47585
16.4729
28.2735
42.855
60.3089
79.5331
99.2132
117.606
133.543
145.808
153.516
156.182
153.298
145.118
131.928
114.071
91.86
65.7716
36.2132
3.2175
-32.3835
-70.3728
-110.56
-152.13
-194.411
-236.951
-279.458
-321.134
-361.383
-399.762
-436.2
-470.223
-502.043
-533.016
-562.891
-591.861
-620.282
-654.499
-689.618
-707.159
-721.24
-722.867
-727.807
-730.797
-732.671
-733.341
-733.53
-733.19
-29.5678
-9.98793
-8.17057
0.775062
10.8264
25.1266
43.5921
64.9349
88.5279
112.721
134.855
152.863
165.404
171.972
172.231
166.677
155.215
138.168
116.4
89.9584
58.9467
24.2146
-13.8227
-54.7933
-97.9358
-142.538
-187.979
-234.073
-280.113
-324.991
-368.106
-409.256
-447.906
-482.908
-514.636
-544.467
-571.102
-595.912
-622.453
-650.836
-675.899
-693.35
-704.552
-714.272
-724.078
-730.903
-734.581
-735.908
-736.183
-735.75
-66.9871
-27.4197
-23.451
-14.618
-6.3808
5.82165
24.1256
47.0487
74.1314
103.936
132.069
156.151
174.559
186.185
190.495
187.368
177.785
161.927
140.809
113.956
81.0966
44.0743
4.17728
-39.2487
-85.757
-133.495
-182.514
-232.333
-282.237
-330.572
-376.86
-421.684
-462.687
-498.887
-531.928
-558.765
-578.275
-591.482
-610.372
-634.446
-651.616
-671.876
-686.503
-704.9
-721.104
-733.801
-741.002
-743.574
-743.835
-742.924
95.9129
91.4203
89.3484
87.974
87.0163
86.3142
85.6907
85.167
84.74
84.4077
84.1645
83.9584
83.7762
83.6021
83.3947
83.1707
82.9981
82.8478
82.6374
82.3766
82.0402
81.4979
80.9056
80.7945
80.6126
79.9576
78.9392
77.9495
76.8483
75.487
73.8146
71.692
68.9341
65.3455
60.7161
54.7813
47.2353
37.7514
25.9445
11.3155
-6.63161
-28.4812
-54.8697
-86.5939
-124.348
-168.914
-220.934
-279.512
-351.029
-426.094
92.9692
88.5388
86.8581
85.2846
84.0082
82.9794
82.0866
81.2828
80.5641
79.894
79.2673
78.6507
78.0281
77.3803
76.6806
75.9235
75.1218
74.3168
73.4047
72.3578
71.19
69.8468
68.1452
66.5373
64.9622
63.0591
60.6612
57.9606
55.0193
51.6377
47.7337
43.2009
37.8467
31.4541
23.7454
14.4041
3.14168
-10.3552
-26.4835
-45.7743
-68.7745
-95.9599
-128.166
-166.076
-210.342
-261.761
-320.938
-386.918
-463.886
-544.984
88.9842
84.5557
83.3144
81.6484
80.2427
78.9848
77.8349
76.7419
75.6908
74.6825
73.6691
72.6185
71.5137
70.3287
69.0431
67.6581
66.1562
64.5354
62.8004
60.8609
58.7563
56.4502
53.7817
50.8759
47.7924
44.2757
40.3522
36.0145
31.1508
25.6362
19.3616
12.1978
3.99725
-5.43818
-16.4033
-29.2605
-44.3549
-62.0045
-82.601
-106.67
-134.847
-167.523
-205.428
-249.293
-299.721
-357.524
-423.26
-495.875
-575.658
-656.798
84.5121
79.8863
79.0645
77.1937
75.6953
74.3363
72.9599
71.6068
70.2804
68.9576
67.5801
66.1114
64.5263
62.8055
60.9351
58.8812
56.6045
54.1368
51.489
48.5929
45.4233
42.0504
38.257
33.9048
29.166
24.0457
18.3847
12.1424
5.22779
-2.53536
-11.2432
-21.1068
-32.3371
-45.0675
-59.4603
-76.0198
-95.0473
-116.927
-142.08
-170.945
-204.107
-242.172
-285.595
-334.928
-390.857
-454.187
-525.148
-602.168
-683.454
-762.006
79.5859
74.8505
74.412
72.14
70.6576
69.1379
67.5784
66.0092
64.4266
62.8452
61.0976
59.223
57.1576
54.885
52.4001
49.6876
46.7437
43.4415
39.7818
35.7787
31.3441
26.5648
21.5068
15.8792
9.54609
2.49591
-5.15234
-13.462
-22.6408
-32.8322
-44.1545
-56.8134
-71.0638
-87.09
-105.068
-125.39
-148.423
-174.491
-204.019
-237.499
-275.444
-318.405
-366.648
-420.684
-481.136
-548.697
-623.375
-703.175
-784.995
-859.825
74.149
69.2671
69.2035
66.5334
65.0702
63.433
61.6984
59.9416
58.1278
56.165
54.0247
51.6952
49.1343
46.3078
43.1809
39.6866
35.8963
31.7427
27.0933
21.956
16.3544
10.2342
3.47283
-3.90748
-11.8591
-20.6122
-30.3275
-40.9102
-52.4588
-65.182
-79.207
-94.7554
-112.071
-131.37
-152.91
-176.935
-203.787
-233.878
-267.575
-305.29
-347.469
-394.523
-446.7
-504.411
-568.116
-638.38
-715.266
-796.712
-878.251
-948.156
68.306
63.245
63.4165
60.3601
59.0282
57.1592
55.279
53.2896
51.1455
48.802
46.2226
43.3741
40.2268
36.7408
32.8985
28.6901
23.9187
18.7067
12.9867
6.66785
-0.341359
-7.94964
-16.1755
-25.2061
-35.0778
-45.8656
-57.5913
-70.3901
-84.3919
-99.7194
-116.543
-135.025
-155.37
-177.806
-202.611
-230.118
-260.587
-294.292
-331.624
-372.963
-418.613
-468.844
-523.982
-584.263
-649.945
-721.542
-799.345
-881.339
-961.356
-1024.44
62.0641
57.3706
57.1777
54.12
52.6036
50.5799
48.4257
46.1209
43.5808
40.7657
37.6519
34.2145
30.3949
26.16
21.4651
16.2935
10.5955
4.24385
-2.72185
-10.3403
-18.6793
-27.869
-37.884
-48.7187
-60.3862
-73.0868
-87.0078
-102.122
-118.544
-136.429
-155.903
-177.183
-200.459
-225.939
-253.86
-284.432
-317.981
-354.827
-395.191
-439.331
-487.536
-540.054
-597.056
-658.792
-725.416
-797.279
-874.92
-956.011
-1032.78
-1087.33
55.4308
51.405
50.7003
47.7659
45.9977
43.6838
41.2177
38.5448
35.5853
32.2848
28.6048
24.5029
19.9279
14.8561
9.24733
3.02452
-3.79592
-11.3173
-19.6165
-28.7019
-38.6374
-49.3741
-61.0444
-73.7193
-87.4859
-102.343
-118.36
-135.73
-154.564
-174.978
-197.105
-221.067
-247.034
-275.181
-305.768
-339.064
-375.234
-414.483
-457.084
-503.255
-553.152
-606.962
-664.938
-727.143
-793.754
-865.144
-941.109
-1019.32
-1091.45
-1135.59
48.7044
44.8877
44.1088
41.0669
39.2209
36.6825
33.8882
30.8121
27.3962
23.5676
19.2727
14.473
9.11522
3.14993
-3.46516
-10.7087
-18.7838
-27.5964
-37.2454
-47.7523
-59.2718
-71.8086
-85.354
-99.9828
-115.692
-132.666
-151.015
-170.7
-191.861
-214.614
-239.082
-265.457
-293.878
-324.489
-357.421
-392.836
-430.989
-472.076
-516.228
-563.619
-614.436
-668.8
-726.758
-788.503
-854.161
-924.084
-997.844
-1072.15
-1137.85
-1171.72
41.2049
37.9974
37.274
34.3443
32.3143
29.5416
26.4833
23.0655
19.222
14.8658
9.98506
4.49529
-1.65484
-8.51003
-16.0772
-24.5029
-33.7445
-43.9331
-55.0898
-67.2099
-80.2606
-94.4416
-109.8
-126.394
-144.303
-163.43
-183.865
-205.786
-229.236
-254.323
-281.115
-309.692
-340.196
-372.765
-407.569
-444.74
-484.367
-526.618
-571.683
-619.669
-670.621
-724.674
-781.985
-842.537
-906.417
-973.918
-1044.5
-1114.1
-1173.09
-1198.94
33.5641
30.9735
30.2149
27.5018
25.5013
22.5592
19.2548
15.5183
11.2691
6.4166
0.950223
-5.21671
-12.1101
-19.7835
-28.338
-37.8263
-48.2066
-59.6152
-72.0988
-85.7483
-100.594
-116.654
-133.919
-152.377
-172.147
-193.419
-216.136
-240.228
-265.821
-292.96
-321.755
-352.308
-384.673
-418.934
-455.197
-493.584
-534.236
-577.211
-622.565
-670.452
-721.001
-774.172
-829.985
-888.604
-950.138
-1014.61
-1081.36
-1146.45
-1199.78
-1218.98
26.011
24.1081
23.4783
20.9707
18.837
15.821
12.357
8.35158
3.7999
-1.45644
-7.45004
-14.1953
-21.8125
-30.3441
-39.8039
-50.2276
-61.8137
-74.5107
-88.379
-103.44
-119.76
-137.393
-156.406
-176.953
-198.882
-222.079
-246.725
-272.881
-300.527
-329.72
-360.433
-392.694
-426.6
-462.237
-499.673
-538.942
-580.084
-623.248
-668.528
-715.888
-765.348
-817.084
-871.044
-927.093
-985.512
-1046.34
-1107.91
-1167.11
-1213.91
-1229.76
19.6377
17.8831
17.2511
14.852
12.7614
9.63573
6.05927
1.85006
-3.00259
-8.50468
-14.8942
-22.1186
-30.2549
-39.4049
-49.6445
-61.0187
-73.5662
-87.3845
-102.546
-119.091
-137.021
-156.41
-177.232
-199.335
-222.967
-248.263
-275.004
-303.172
-332.754
-363.715
-396.121
-429.991
-465.284
-502.015
-540.244
-580.067
-621.555
-664.617
-709.24
-755.575
-803.667
-853.373
-904.871
-958.149
-1012.81
-1068.88
-1124.13
-1174.64
-1210.4
-1224.52
13.7193
12.3136
11.7353
9.43498
7.30084
4.17569
0.591645
-3.65981
-8.66762
-14.4128
-20.9488
-28.5354
-37.1606
-46.8719
-57.7636
-69.9081
-83.3359
-98.1553
-114.393
-132.119
-151.429
-172.245
-194.673
-218.867
-244.56
-271.62
-300.204
-330.242
-361.711
-394.545
-428.618
-463.877
-500.354
-538.074
-577.052
-617.204
-658.504
-701.117
-745.068
-790.169
-836.378
-883.874
-932.414
-982.029
-1033.05
-1083.38
-1129.7
-1166.97
-1188.2
-1199.32
8.13197
7.1265
6.68356
4.63448
2.67717
-0.358784
-3.87935
-8.03092
-12.9657
-18.7088
-25.388
-33.0182
-41.7624
-51.7295
-63.0743
-75.845
-90.0043
-105.713
-123.04
-141.959
-162.545
-184.912
-208.925
-234.54
-261.912
-290.998
-321.633
-353.722
-387.092
-421.648
-457.311
-494.035
-531.741
-570.332
-609.753
-650.129
-691.502
-733.659
-776.487
-820.135
-864.499
-909.226
-954.653
-1000.25
-1046.25
-1090.15
-1128.74
-1155.98
-1166.22
-1172.49
3.30866
2.71622
2.3546
0.490511
-1.22807
-3.95999
-7.21828
-11.1218
-15.8599
-21.4556
-27.9779
-35.589
-44.3202
-54.3146
-65.7354
-78.7203
-93.386
-109.64
-127.565
-147.358
-169.172
-192.818
-218.421
-245.875
-275.074
-306.063
-338.668
-372.758
-408.207
-444.792
-482.317
-520.577
-559.472
-598.996
-639.167
-679.807
-720.802
-762.281
-804.287
-846.464
-888.774
-931.282
-973.496
-1015.81
-1056.58
-1093.77
-1125.29
-1147.35
-1156.68
-1157.93
-0.892037
-0.934523
-1.24356
-2.79465
-4.32661
-6.85044
-9.7691
-13.2928
-17.5301
-22.6893
-28.6907
-35.8088
-44.1675
-53.8176
-64.9927
-78.0198
-92.983
-109.996
-128.755
-148.963
-171.321
-196.04
-222.83
-251.902
-283.041
-315.999
-350.784
-387.18
-424.925
-463.737
-503.281
-543.348
-583.83
-624.558
-665.344
-706.291
-747.472
-788.644
-829.542
-870.441
-911.117
-951.345
-991.261
-1030.42
-1067.31
-1100.48
-1125.95
-1139.11
-1147.07
-1147.39
-5.02919
-4.67826
-4.67772
-5.79845
-6.8856
-8.8707
-11.2289
-14.2699
-17.986
-22.433
-27.9299
-34.3873
-42.0495
-51.2193
-61.852
-74.2137
-88.5799
-105.015
-123.919
-145.221
-168.355
-194.013
-222.14
-252.485
-285.224
-320.294
-357.448
-396.371
-436.689
-478.055
-520.187
-562.692
-605.106
-647.283
-689.238
-730.875
-772.078
-812.891
-853.403
-893.112
-932.416
-971.092
-1009.35
-1045.88
-1079.5
-1107.75
-1127.47
-1136.6
-1138.94
-1140.15
-8.10523
-7.59782
-7.61394
-8.51062
-9.25188
-10.8214
-12.5979
-14.8264
-17.649
-21.2477
-25.6458
-31.0847
-37.7424
-45.7983
-55.4998
-66.9375
-80.4602
-96.2758
-114.641
-135.765
-159.411
-185.706
-214.994
-246.956
-281.568
-318.768
-358.264
-399.973
-443.478
-488.211
-533.489
-578.66
-623.479
-667.719
-711.244
-753.846
-795.606
-836.566
-876.513
-915.746
-954.099
-991.508
-1027.37
-1061.3
-1091.72
-1115.53
-1127.78
-1134.57
-1134.95
-1135.84
-10.2924
-9.85567
-10.3226
-11.0872
-11.5165
-12.6323
-13.8046
-15.3408
-17.2733
-19.8185
-23.0367
-27.1182
-32.3133
-38.9424
-47.2474
-57.391
-69.6778
-84.4279
-101.842
-122.229
-145.729
-172.225
-202.004
-235.223
-271.545
-310.828
-352.98
-397.675
-444.462
-492.669
-541.709
-591.04
-639.658
-686.746
-732.06
-776.127
-818.844
-860.134
-900.248
-938.888
-975.892
-1011.51
-1045.05
-1075.89
-1102.27
-1119.64
-1129.41
-1131.52
-1132.25
-1132.42
-12.5949
-12.21
-12.9813
-13.5182
-13.9401
-14.7222
-15.3498
-16.2379
-17.3412
-18.5999
-20.3801
-22.8552
-26.2219
-30.8666
-37.1849
-45.4294
-55.8789
-68.967
-84.9783
-104.367
-127.382
-153.799
-183.689
-217.483
-255.048
-296.249
-341.034
-389.012
-439.817
-492.768
-546.804
-600.607
-653.148
-703.781
-752.379
-798.518
-842.461
-884.172
-924.084
-962.729
-998.74
-1031.68
-1062.58
-1089.86
-1110.09
-1121.73
-1127.29
-1128.8
-1129.6
-1129.66
-15.2258
-15.0236
-15.9063
-16.4136
-16.8195
-17.4461
-17.7613
-18.0076
-18.2451
-18.4902
-18.8385
-19.5148
-20.9227
-23.3346
-27.1373
-32.8725
-40.9505
-51.7286
-65.6651
-83.1098
-104.558
-130.261
-159.999
-194.046
-232.569
-275.473
-322.529
-373.621
-428.383
-485.993
-545.399
-605.421
-664.412
-720.71
-772.901
-821.513
-867.11
-910.169
-950.55
-987.68
-1021.72
-1053.03
-1080.4
-1101.37
-1114.32
-1121.89
-1124.64
-1126.7
-1127.95
-1128.37
-16.5268
-16.7512
-18.0735
-19.1615
-19.8852
-20.7313
-21.0778
-21.1363
-20.7639
-20.0477
-18.9858
-17.8588
-16.9704
-16.7318
-17.6623
-20.2914
-25.268
-33.0712
-44.3594
-59.5545
-78.8072
-102.594
-131.471
-165.335
-204.146
-248.118
-297.249
-351.351
-410.184
-473.346
-539.43
-606.717
-673.073
-735.998
-794.118
-846.671
-894.258
-937.983
-978.378
-1015.13
-1046.98
-1075.21
-1097.42
-1111.36
-1119.22
-1122.82
-1125.27
-1127.21
-1128.5
-1129.32
-15.9689
-17.584
-19.3125
-21.1391
-22.5725
-24.1129
-24.7958
-25.1005
-24.6607
-23.3856
-21.3677
-18.7939
-15.8487
-12.9894
-10.7563
-9.91585
-11.2318
-15.4056
-22.9955
-34.6831
-50.9309
-72.1768
-98.9081
-131.597
-170.193
-214.669
-265.191
-321.784
-384.47
-452.892
-526.165
-601.914
-677.562
-750.299
-816.478
-874.406
-925.609
-970.805
-1010.35
-1044.14
-1074.19
-1098.35
-1114.16
-1123.13
-1127.34
-1129.32
-1130.52
-1131.19
-1131.78
-1132.48
-13.7314
-17.1051
-19.3464
-22.2283
-24.6992
-27.338
-28.9137
-30.1248
-30.1961
-28.9116
-26.4692
-22.7342
-17.8589
-12.3328
-6.7711
-1.99765
1.11881
1.49322
-1.73605
-9.21732
-21.813
-39.9196
-63.9663
-94.2066
-131.409
-175.626
-227.038
-285.666
-351.64
-424.922
-505.011
-590.257
-678.005
-763.235
-840.307
-907.227
-962.807
-1008.84
-1047.04
-1078.61
-1105.25
-1121.26
-1131.53
-1136.43
-1138.37
-1139.01
-1138.58
-1137.51
-1136.58
-1136.57
-11.3057
-15.1958
-18.6182
-22.4359
-25.8437
-29.6066
-32.6164
-35.2944
-36.5236
-36.1692
-34.0985
-29.9646
-24.0091
-16.3981
-7.88192
0.696916
8.41288
13.8994
16.002
14.2511
6.74087
-7.16913
-27.6892
-54.588
-89.2741
-131.932
-182.682
-242.218
-310.663
-388.546
-475.929
-572.073
-672.594
-772.78
-866.927
-945.667
-1007.45
-1055.37
-1090.74
-1117.53
-1131.88
-1142.85
-1146.72
-1148.09
-1147.71
-1146.56
-1144.69
-1142.21
-1139.84
-1138.86
-9.8136
-12.3584
-16.9951
-21.6599
-26.034
-31.0415
-35.8491
-40.5236
-43.6813
-45.3623
-44.2319
-40.3224
-33.8778
-25.0527
-13.8467
-1.27509
11.4495
23.0021
30.8801
34.23
32.5135
24.3959
9.28003
-13.9347
-45.103
-85.2382
-134.725
-194.072
-264.007
-345.138
-438.226
-543.465
-659.456
-780.139
-894.78
-991.086
-1062.67
-1109.69
-1140.73
-1158.97
-1163.04
-1161.01
-1159.53
-1157.06
-1154.09
-1150.8
-1147.24
-1143.56
-1140.53
-1138.46
-13.5673
-8.69982
-14.7961
-19.9922
-24.9787
-30.8555
-37.1232
-43.7491
-49.5289
-53.2888
-54.8713
-52.2148
-46.5987
-38.1829
-26.066
-10.3313
6.92449
23.9427
39.3648
49.5521
54.2647
52.2289
42.4126
24.5369
-1.54387
-37.343
-83.6099
-141.088
-211.209
-294.59
-392.885
-507.89
-640.489
-783.005
-924.31
-1047.1
-1130.87
-1180.06
-1200.19
-1197.26
-1191.13
-1179.19
-1170.41
-1164.18
-1158.25
-1152.74
-1147.59
-1142.81
-1139.06
-1136.58
-35.8396
-9.42676
-13.6619
-18.074
-23.4756
-30.1908
-37.4957
-45.6732
-54.3377
-60.7469
-63.99
-64.267
-62.0728
-55.95
-43.358
-23.6056
-0.783334
20.694
41.5109
59.1615
70.8117
76.0369
72.9661
60.9035
39.098
7.57169
-35.1739
-89.9212
-158.161
-242.278
-344.334
-466.455
-612.54
-779.824
-957.656
-1112.46
-1205.35
-1254.62
-1262.09
-1245.57
-1220.86
-1200.97
-1184.63
-1173.54
-1164
-1155.63
-1148.3
-1141.96
-1137.15
-1134.18
-19.4487
-3.0179
-7.51506
-13.9523
-21.5582
-29.1524
-37.6792
-48.0969
-59.6539
-70.6533
-78.0623
-82.3869
-82.5844
-78.0143
-67.7271
-47.953
-19.4533
9.61817
36.1243
61.5594
81.8638
94.7863
98.5784
91.4607
73.7269
45.4317
5.47112
-46.9386
-112.509
-195.559
-300.734
-430.028
-587.37
-787.778
-1015.11
-1222.52
-1354.63
-1393.02
-1361.19
-1314.63
-1269.57
-1233.3
-1205.85
-1185.58
-1171
-1158.28
-1147.83
-1139.72
-1134.26
-1131.15
-8.54278
-5.35357
-7.77015
-13.7729
-22.6002
-32.8565
-43.7698
-56.7419
-72.3764
-86.2623
-94.6683
-99.9809
-104.339
-102.554
-86.9613
-58.3632
-23.5839
11.6459
43.4899
71.8554
95.3358
109.888
114.34
107.611
89.5737
60.4224
18.7766
-36.748
-105.767
-193.474
-308.819
-455.954
-635.457
-872.485
-1156.14
-1406.73
-1521.36
-1510.87
-1451.29
-1380.64
-1312.98
-1260.23
-1220.73
-1192.31
-1171.55
-1155.13
-1142.6
-1133.4
-1127.82
-1125.05
-3.01766
-7.60238
-12.9913
-20.6892
-30.0638
-41.783
-57.6452
-75.3147
-92.107
-107.895
-120.511
-131.805
-135.452
-125.099
-100.101
-62.4883
-21.6847
17.3121
56.1904
89.8198
113.957
127.978
130.134
119.732
96.5863
62.2556
14.2291
-49.9941
-128.727
-226.918
-358.904
-532.599
-750.685
-1025.88
-1344.35
-1614.92
-1699.7
-1635.19
-1544.53
-1444.82
-1352.33
-1282.86
-1230.14
-1194.13
-1167.07
-1146.96
-1132.59
-1122.83
-1117.57
-1115.2
-2.95985
-9.62478
-17.2347
-28.67
-42.5286
-60.4119
-79.4402
-100.422
-123.91
-147.618
-166.628
-176.964
-177.351
-158.217
-129.924
-90.378
-35.0539
22.2573
70.0163
108.039
134.522
147.643
146.925
133.591
106.985
68.186
13.0664
-62.2676
-155.392
-270.611
-428.422
-637.223
-898.852
-1205.82
-1534.75
-1801.95
-1860.46
-1748.66
-1617.25
-1484.63
-1370.67
-1286.14
-1225.13
-1183.27
-1153.15
-1131.86
-1117.16
-1107.76
-1103.32
-1101.47
-3.18123
-13.217
-25.6053
-42.2347
-59.7469
-82.031
-110.28
-141.897
-174.579
-204.641
-232.604
-244.185
-248.629
-238.585
-193.313
-127.453
-51.6964
18.4633
76.3642
115.343
140.405
151.393
148.72
136.088
108.25
64.7932
6.33285
-70.2226
-171.765
-306.317
-490.211
-741.288
-1041.31
-1360.34
-1666.05
-1897.7
-1933.13
-1766.91
-1617.1
-1473.29
-1353.65
-1266.25
-1204.62
-1162.25
-1131.83
-1110.99
-1097.06
-1088.82
-1085.62
-1084.44
-5.03827
-17.1036
-32.7716
-53.8796
-82.7
-116.456
-153.688
-196.629
-246.086
-290.682
-332.023
-375.096
-382.618
-344.526
-267.984
-171.974
-68.5712
13.9321
65.2591
96.8172
113.351
114.131
101.868
87.959
56.9367
13.4211
-39.6433
-115.597
-228.074
-377.681
-575.236
-835.411
-1138.99
-1442.05
-1689.6
-1840.58
-1834.68
-1702.51
-1550.29
-1412.87
-1303.37
-1224.51
-1169.39
-1130.1
-1103.93
-1085.88
-1074.08
-1067.71
-1066.1
-1065.79
-5.97847
-23.2113
-46.1242
-74.4277
-110.535
-155.581
-212.498
-279.785
-351.118
-431.796
-509.582
-562.345
-556.124
-481.672
-367.285
-238.991
-132.425
-55.2224
-6.43918
18.9059
29.9367
28.4744
17.8539
-13.3292
-53.1269
-101.867
-160.364
-242.578
-359.07
-511.597
-704.327
-937.775
-1200.68
-1441.38
-1608.24
-1682.11
-1660.56
-1558.44
-1434.59
-1323.89
-1236.7
-1173.11
-1127.93
-1096.43
-1074.71
-1060
-1050.85
-1046.68
-1046.96
-1047.68
-9.10919
-30.0295
-58.7398
-98.7558
-152.924
-220.4
-296.796
-397.04
-530.502
-664.495
-767.416
-819.394
-795.52
-687.083
-531.97
-384.026
-267.666
-187.96
-142.077
-116.24
-107.284
-116.489
-142.308
-179.161
-227.043
-278.589
-339.431
-422.346
-534.587
-675.498
-842.888
-1032.16
-1221.31
-1378.12
-1474.16
-1503.62
-1476.8
-1404.11
-1314.43
-1232.94
-1169.05
-1122.06
-1088.1
-1063.98
-1047.34
-1036.36
-1030.06
-1028.26
-1030.66
-1032.65
-13.4378
-43.0172
-84.2917
-138.779