/*--------------------------------*- C++ -*----------------------------------*\
| =========                 |                                                 |
| \\      /  F ield         | OpenFOAM: The Open Source CFD Toolbox           |
|  \\    /   O peration     | Version:  v1912                                 |
|   \\  /    A nd           | Website:  www.openfoam.com                      |
|    \\/     M anipulation  |                                                 |
\*---------------------------------------------------------------------------*/
FoamFile
{
    version     2.0;
    format      ascii;
    class       surfaceScalarField;
    location    "0.32";
    object      phi;
}
// * * * * * * * * * * * * * * * * * * * * * * * * * * * * * * * * * * * * * //

dimensions      [0 3 -1 0 0 0 0];
oriented        oriented;


internalField   nonuniform List<scalar> 
13060
(
0.006318
0.987818
-0.994136
0.00852485
0.944805
-0.947012
0.0101915
0.898647
-0.900313
0.0113144
0.854913
-0.856036
0.0119081
0.814103
-0.814697
0.0120576
0.775983
-0.776133
0.0120899
0.73976
-0.739792
0.0120961
0.705077
-0.705083
0.0119556
0.67213
-0.67199
0.011968
0.640394
-0.640406
0.0122356
0.610134
-0.610402
0.0125518
0.581415
-0.581732
0.0128991
0.553997
-0.554344
0.0132651
0.527621
-0.527987
0.0136664
0.502405
-0.502806
0.0140668
0.478333
-0.478733
0.0144638
0.455153
-0.45555
0.0149593
0.43307
-0.433566
0.0154917
0.412141
-0.412673
0.015966
0.39189
-0.392364
0.0161654
0.372783
-0.372983
0.0161987
0.354603
-0.354636
0.0162316
0.337372
-0.337405
0.0161409
0.320989
-0.320898
0.0158809
0.305445
-0.305185
0.0154422
0.290705
-0.290267
0.0149501
0.276692
-0.2762
0.0144963
0.263447
-0.262993
0.014047
0.250858
-0.250408
0.0135535
0.238941
-0.238448
0.0129624
0.227642
-0.227051
0.012267
0.217043
-0.216348
0.0115139
0.207074
-0.206321
0.0107435
0.197678
-0.196908
0.00996816
0.188787
-0.188012
0.00919676
0.180285
-0.179514
0.00841259
0.172339
-0.171555
0.00753107
0.164936
-0.164054
0.00653481
0.157978
-0.156982
0.00547989
0.151439
-0.150384
0.00443301
0.145233
-0.144186
0.00338694
0.13936
-0.138314
0.00239416
0.133747
-0.132754
0.00143792
0.128618
-0.127661
0.000526177
0.12365
-0.122738
-0.000304045
0.119088
-0.118258
-0.00119279
0.114263
-0.113374
-0.00198408
0.110717
-0.109926
-0.00191978
0.10199
-0.102054
0.0717222
-0.0736419
0.00595994
0.981858
0.00739632
0.943369
0.00814664
0.897896
0.00819561
0.854864
0.00818613
0.814113
0.0084407
0.775729
0.00865696
0.739544
0.00881661
0.704917
0.00920698
0.67174
0.00957696
0.640024
0.00980284
0.609908
0.0100067
0.581211
0.0102478
0.553756
0.0104945
0.527374
0.0107701
0.502129
0.0110361
0.478067
0.0112098
0.45498
0.0112555
0.433025
0.0111987
0.412197
0.0110205
0.392068
0.0109998
0.372804
0.0110025
0.3546
0.0109506
0.337424
0.0108597
0.32108
0.0108191
0.305485
0.0108139
0.290711
0.0107062
0.2768
0.010415
0.263738
0.00989779
0.251375
0.00933224
0.239507
0.00869907
0.228275
0.00801849
0.217724
0.00729535
0.207797
0.00654261
0.198431
0.00571015
0.18962
0.00479963
0.181196
0.0038662
0.173272
0.0029653
0.165837
0.00214257
0.158801
0.00138847
0.152193
0.000655141
0.145966
-4.41995e-05
0.140059
-0.000803311
0.134506
-0.00147671
0.129291
-0.00209863
0.124272
-0.00262247
0.119612
-0.00316441
0.114805
-0.00321104
0.110764
-0.00245751
0.101236
0.0692647
0.00627048
0.975588
0.00732051
0.942319
0.00766026
0.897557
0.00733956
0.855185
0.0068952
0.814557
0.00624841
0.776375
0.00572915
0.740063
0.00534639
0.7053
0.00483113
0.672255
0.00454939
0.640306
0.00460074
0.609857
0.00473348
0.581079
0.00488974
0.5536
0.00505589
0.527208
0.0052642
0.501921
0.00552303
0.477808
0.00584471
0.454658
0.00625102
0.432618
0.00666569
0.411783
0.00680534
0.391928
0.00674076
0.372869
0.00662707
0.354714
0.00646945
0.337581
0.00616954
0.321379
0.00566652
0.305988
0.00501756
0.29136
0.00437836
0.277439
0.00395627
0.26416
0.00363816
0.251693
0.0031756
0.239969
0.00260034
0.22885
0.00200502
0.218319
0.0013819
0.20842
0.000767262
0.199045
0.000217781
0.190169
-0.000320691
0.181734
-0.000848196
0.1738
-0.00142749
0.166416
-0.00208419
0.159458
-0.0027395
0.152849
-0.00332966
0.146556
-0.00386316
0.140593
-0.00428818
0.134931
-0.00461597
0.129619
-0.00483858
0.124495
-0.00493522
0.119708
-0.0049445
0.114814
-0.00431584
0.110135
-0.00299469
0.099915
0.06627
0.00472207
0.970866
0.00454215
0.942499
0.00389318
0.898206
0.00335008
0.855728
0.00286152
0.815046
0.00261307
0.776624
0.00240476
0.740271
0.00229458
0.70541
0.00245644
0.672093
0.00250304
0.640259
0.00242898
0.609931
0.00238881
0.581119
0.00240687
0.553582
0.00244314
0.527172
0.00244533
0.501919
0.00238177
0.477871
0.00218456
0.454855
0.00195486
0.432848
0.00177985
0.411958
0.00168927
0.392019
0.00156339
0.372995
0.001355
0.354923
0.00116296
0.337773
0.00103676
0.321506
0.000995668
0.30603
0.000946113
0.291409
0.000726833
0.277659
0.000225906
0.264661
-0.000400347
0.252319
-0.000977401
0.240546
-0.00151701
0.22939
-0.00211145
0.218913
-0.00272862
0.209038
-0.00334963
0.199666
-0.00401359
0.190833
-0.00472275
0.182443
-0.00541244
0.17449
-0.00600118
0.167005
-0.00645632
0.159913
-0.00680551
0.153198
-0.007094
0.146845
-0.00729654
0.140795
-0.00738925
0.135024
-0.0073616
0.129591
-0.00721568
0.124349
-0.00690419
0.119397
-0.00653169
0.114442
-0.00557066
0.109174
-0.00365738
0.0980017
0.0626126
0.00432817
0.966538
0.00432938
0.942498
0.00374477
0.89879
0.00271419
0.856758
0.00154192
0.816218
0.000309202
0.777856
-0.000641674
0.741222
-0.00147165
0.70624
-0.00234682
0.672968
-0.00286789
0.64078
-0.0030858
0.610149
-0.00318088
0.581214
-0.00318859
0.553589
-0.00312865
0.527112
-0.00300975
0.5018
-0.00278003
0.477642
-0.00251343
0.454589
-0.00231146
0.432646
-0.002335
0.411981
-0.00250359
0.392188
-0.00272655
0.373218
-0.00296073
0.355157
-0.00325755
0.33807
-0.00373772
0.321986
-0.00443326
0.306725
-0.00522451
0.2922
-0.00583134
0.278265
-0.00624204
0.265071
-0.00661194
0.252689
-0.00707643
0.241011
-0.00762366
0.229937
-0.0081379
0.219428
-0.00863172
0.209531
-0.00910141
0.200136
-0.00948765
0.191219
-0.00976812
0.182724
-0.00998748
0.174709
-0.0102086
0.167226
-0.0104536
0.160158
-0.0106448
0.153389
-0.0107095
0.14691
-0.0106544
0.14074
-0.0104881
0.134857
-0.0101617
0.129265
-0.00965571
0.123843
-0.0089612
0.118702
-0.00818549
0.113666
-0.00678226
0.107771
-0.00430105
0.0955205
0.0583115
0.00291044
0.963627
0.00122055
0.944188
-0.000604573
0.900615
-0.00160459
0.857758
-0.00252816
0.817142
-0.00311349
0.778442
-0.00367045
0.741779
-0.00408158
0.706651
-0.00420712
0.673094
-0.00448334
0.641056
-0.00486239
0.610528
-0.00517498
0.581527
-0.00546113
0.553875
-0.00575806
0.527409
-0.00610181
0.502144
-0.00651417
0.478054
-0.00692194
0.454996
-0.00724596
0.43297
-0.00741431
0.41215
-0.00761762
0.392391
-0.00792414
0.373524
-0.00829442
0.355527
-0.00860044
0.338376
-0.00878077
0.322166
-0.00883033
0.306775
-0.00887819
0.292248
-0.00919568
0.278583
-0.00976962
0.265645
-0.0103815
0.253301
-0.0109134
0.241543
-0.0114184
0.230442
-0.0119358
0.219945
-0.0124202
0.210016
-0.0128518
0.200568
-0.0132658
0.191633
-0.0136903
0.183148
-0.0140631
0.175082
-0.0142954
0.167458
-0.0143388
0.160201
-0.0142314
0.153282
-0.0140187
0.146697
-0.0136829
0.140404
-0.0132078
0.134382
-0.0125963
0.128653
-0.0118572
0.123104
-0.010936
0.117781
-0.00989915
0.112629
-0.0081547
0.106027
-0.00499143
0.0923572
0.0533201
0.00251862
0.961109
0.00121098
0.945495
-0.000612929
0.902439
-0.00207557
0.859221
-0.00375627
0.818822
-0.00537332
0.780059
-0.00675534
0.743161
-0.00794798
0.707844
-0.00904509
0.674191
-0.00976189
0.641773
-0.010203
0.610969
-0.0104702
0.581794
-0.0106382
0.554043
-0.0107139
0.527484
-0.0106903
0.50212
-0.0106223
0.477986
-0.0106335
0.455008
-0.0108436
0.43318
-0.0111749
0.412481
-0.0114896
0.392706
-0.0118007
0.373835
-0.012166
0.355892
-0.0126391
0.338849
-0.0132996
0.322827
-0.0141776
0.307653
-0.0150495
0.29312
-0.0156598
0.279193
-0.0159978
0.265983
-0.0163016
0.253605
-0.016713
0.241954
-0.0171462
0.230875
-0.0175195
0.220318
-0.0178301
0.210326
-0.0180847
0.200822
-0.0182312
0.19178
-0.0182498
0.183167
-0.0181529
0.174985
-0.0179971
0.167302
-0.0178294
0.160034
-0.0175835
0.153036
-0.0171857
0.146299
-0.0166437
0.139862
-0.0159695
0.133708
-0.0151368
0.127821
-0.0141634
0.12213
-0.0130464
0.116664
-0.011615
0.111198
-0.00940648
0.103818
-0.00561117
0.0885619
0.0477089
0.0012585
0.95985
-0.00172071
0.948474
-0.00412865
0.904847
-0.00605207
0.861144
-0.00746016
0.82023
-0.00836809
0.780967
-0.00915262
0.743946
-0.00982509
0.708517
-0.0102941
0.67466
-0.0108724
0.642351
-0.0115304
0.611627
-0.0121409
0.582404
-0.0127405
0.554643
-0.0133599
0.528104
-0.0139821
0.502742
-0.0145462
0.47855
-0.0150173
0.455479
-0.0153534
0.433516
-0.0156678
0.412795
-0.0160808
0.393119
-0.0165454
0.3743
-0.01703
0.356377
-0.0174493
0.339268
-0.0176874
0.323065
-0.0177228
0.307688
-0.0178133
0.293211
-0.0182103
0.27959
-0.0188412
0.266614
-0.0194486
0.254212
-0.0199409
0.242446
-0.0203429
0.231277
-0.0207114
0.220687
-0.0210167
0.210632
-0.0212391
0.201045
-0.0213976
0.191938
-0.0215175
0.183287
-0.0215807
0.175048
-0.0214953
0.167217
-0.0211811
0.159719
-0.0206813
0.152536
-0.0200615
0.145679
-0.0193172
0.139118
-0.0184318
0.132823
-0.0174144
0.126803
-0.0162908
0.121007
-0.015115
0.115488
-0.0133591
0.109442
-0.010793
0.101252
-0.00627902
0.084048
0.0414299
0.00127201
0.958578
-0.00135402
0.9511
-0.00384635
0.907339
-0.00601384
0.863312
-0.00821373
0.82243
-0.0103211
0.783074
-0.0120657
0.74569
-0.0134857
0.709937
-0.0147304
0.675905
-0.0156166
0.643238
-0.0161657
0.612176
-0.0165299
0.582768
-0.0167522
0.554865
-0.0169334
0.528285
-0.0171358
0.502945
-0.0173977
0.478812
-0.0177595
0.455841
-0.0182284
0.433985
-0.0186755
0.413242
-0.0191146
0.393558
-0.0195458
0.374731
-0.0200287
0.35686
-0.0206394
0.339879
-0.021469
0.323894
-0.0225195
0.308739
-0.0234614
0.294153
-0.0240466
0.280176
-0.0243853
0.266953
-0.0247006
0.254528
-0.0250338
0.24278
-0.0253427
0.231586
-0.0255755
0.22092
-0.0257109
0.210767
-0.0257616
0.201095
-0.0257036
0.19188
-0.0255022
0.183085
-0.0251331
0.174679
-0.0246577
0.166742
-0.0241601
0.159222
-0.0235898
0.151966
-0.0228664
0.144956
-0.0219925
0.138244
-0.0209975
0.131828
-0.019861
0.125667
-0.0185725
0.119718
-0.0171939
0.11411
-0.0151836
0.107432
-0.0121455
0.098214
-0.00686535
0.0787678
0.0345646
2.91119e-05
0.958549
-0.00397604
0.955106
-0.00707407
0.910437
-0.00958018
0.865818
-0.0113762
0.824226
-0.0126229
0.784321
-0.0137276
0.746795
-0.0147217
0.710931
-0.0155119
0.676695
-0.0163704
0.644096
-0.0173087
0.613115
-0.0182077
0.583667
-0.0189941
0.555652
-0.019685
0.528976
-0.020293
0.503553
-0.0208369
0.479356
-0.0212909
0.456295
-0.0217744
0.434469
-0.0223312
0.413799
-0.0229516
0.394178
-0.0236204
0.3754
-0.0242204
0.35746
-0.0247166
0.340375
-0.0249658
0.324143
-0.0250001
0.308773
-0.0251464
0.294299
-0.0256098
0.280639
-0.0262458
0.267589
-0.0268319
0.255114
-0.0273053
0.243253
-0.0276668
0.231948
-0.027937
0.22119
-0.0281189
0.210949
-0.0281986
0.201175
-0.0281695
0.191851
-0.028059
0.182975
-0.0278996
0.17452
-0.0276095
0.166451
-0.0270761
0.158688
-0.0263341
0.151224
-0.02547
0.144092
-0.024497
0.137271
-0.0233936
0.130724
-0.0221849
0.124458
-0.0209169
0.11845
-0.0193307
0.112523
-0.017148
0.105249
-0.0136741
0.0947401
-0.00754278
0.0726365
0.0270218
0.000305982
0.958243
-0.00295393
0.958366
-0.00615777
0.913641
-0.0090901
0.86875
-0.0117935
0.82693
-0.0142962
0.786824
-0.0162945
0.748793
-0.0178593
0.712495
-0.0191649
0.678001
-0.0200432
0.644974
-0.0206163
0.613688
-0.0210386
0.58409
-0.0214253
0.556038
-0.0218708
0.529421
-0.022343
0.504025
-0.022839
0.479852
-0.0233599
0.456815
-0.0238536
0.434962
-0.0243316
0.414277
-0.0248364
0.394683
-0.0253627
0.375926
-0.0259656
0.358063
-0.0267018
0.341111
-0.0277149
0.325157
-0.0289109
0.309969
-0.0299373
0.295325
-0.0305686
0.28127
-0.0309627
0.267983
-0.0312941
0.255445
-0.0315839
0.243543
-0.0318288
0.232193
-0.0319974
0.221358
-0.032054
0.211006
-0.0320005
0.201121
-0.0318432
0.191694
-0.0315448
0.182676
-0.0310441
0.174019
-0.030394
0.165801
-0.0297134
0.158008
-0.0289797
0.15049
-0.0281081
0.14322
-0.0270875
0.136251
-0.0259477
0.129584
-0.0246823
0.123193
-0.0234203
0.117188
-0.021577
0.11068
-0.0191087
0.102781
-0.0149445
0.0905758
-0.00812769
0.0658197
0.0188941
-0.000844235
0.959087
-0.00573629
0.963258
-0.00936296
0.917268
-0.0122379
0.871625
-0.0142926
0.828984
-0.0158662
0.788397
-0.0172447
0.750172
-0.0184549
0.713706
-0.0194904
0.679036
-0.0205651
0.646049
-0.0216237
0.614746
-0.0225689
0.585035
-0.0233235
0.556793
-0.0239158
0.530014
-0.024479
0.504588
-0.0250446
0.480418
-0.0256398
0.457411
-0.0263082
0.435631
-0.0270067
0.414976
-0.0277691
0.395445
-0.0285565
0.376714
-0.0292852
0.358791
-0.0298955
0.341722
-0.03018
0.325441
-0.0302732
0.310062
-0.030499
0.295551
-0.0310469
0.281818
-0.0317285
0.268665
-0.0323496
0.256066
-0.0328737
0.244067
-0.0332777
0.232597
-0.033561
0.221642
-0.0337378
0.211183
-0.0338027
0.201186
-0.0337252
0.191617
-0.0335302
0.182481
-0.0332953
0.173784
-0.0329669
0.165473
-0.0324029
0.157444
-0.0316081
0.149695
-0.0306808
0.142293
-0.0296629
0.135233
-0.0285417
0.128463
-0.0273384
0.121989
-0.0259815
0.115831
-0.023942
0.108641
-0.0210088
0.0998474
-0.0158318
0.0853988
-0.00746186
0.0574497
0.0114322
-0.000471156
0.959558
-0.00422234
0.967009
-0.00780938
0.920855
-0.0113354
0.875151
-0.0144394
0.832088
-0.0170718
0.79103
-0.0191018
0.752202
-0.0206768
0.715281
-0.0218923
0.680252
-0.0226927
0.64685
-0.023217
0.615271
-0.0237143
0.585532
-0.024302
0.557381
-0.0248908
0.530602
-0.025439
0.505136
-0.0259692
0.480948
-0.0265072
0.457949
-0.0270501
0.436174
-0.027629
0.415555
-0.0282179
0.396034
-0.0288828
0.377378
-0.0295872
0.359496
-0.030468
0.342602
-0.0317129
0.326686
-0.0330875
0.311437
-0.0342508
0.296714
-0.0350156
0.282583
-0.0355556
0.269205
-0.0360265
0.256537
-0.036417
0.244457
-0.0367269
0.232906
-0.0369428
0.221858
-0.0370491
0.211289
-0.0370396
0.201177
-0.0369413
0.191518
-0.0367226
0.182263
-0.0362861
0.173348
-0.0356535
0.16484
-0.0349674
0.156757
-0.0342483
0.148976
-0.0334086
0.141453
-0.0324079
0.134232
-0.0312875
0.127343
-0.0302357
0.120937
-0.0286418
0.114237
-0.0264291
0.106428
-0.0226943
0.0961127
-0.0159635
0.0786681
-0.00563257
0.0471188
0.00579967
-0.00220023
0.961759
-0.00739665
0.972205
-0.0110852
0.924543
-0.0140451
0.878111
-0.0162298
0.834273
-0.0180938
0.792894
-0.0196223
0.75373
-0.0208522
0.71651
-0.0219487
0.681348
-0.0230167
0.647918
-0.0239656
0.61622
-0.0246298
0.586196
-0.0251178
0.557869
-0.0256131
0.531098
-0.0261755
0.505699
-0.0267983
0.481571
-0.0274978
0.458648
-0.0282612
0.436937
-0.0290998
0.416393
-0.0299867
0.396921
-0.0309154
0.378307
-0.0318618
0.360442
-0.0326321
0.343373
-0.0330334
0.327087
-0.0332925
0.311696
-0.0337365
0.297158
-0.034494
0.28334
-0.0353525
0.270063
-0.036127
0.257312
-0.036811
0.245142
-0.0373966
0.233492
-0.0378725
0.222334
-0.0382243
0.211641
-0.038447
0.2014
-0.0384997
0.191571
-0.0384001
0.182163
-0.0382648
0.173212
-0.0380832
0.164659
-0.0376889
0.156363
-0.0370404
0.148328
-0.0362341
0.140647
-0.0353369
0.133335
-0.034388
0.126394
-0.0332839
0.119833
-0.0314557
0.112409
-0.0288171
0.103789
-0.0241385
0.091434
-0.015677
0.0702066
-0.0037678
0.0352096
0.00203187
-0.00131552
0.963074
-0.00598943
0.976879
-0.0100182
0.928572
-0.013575
0.881668
-0.0165504
0.837248
-0.0189832
0.795326
-0.0208989
0.755646
-0.0223542
0.717966
-0.0232683
0.682262
-0.0238093
0.648459
-0.0242422
0.616653
-0.0247618
0.586716
-0.0252344
0.558341
-0.0256129
0.531476
-0.0260015
0.506087
-0.0264331
0.482002
-0.026918
0.459133
-0.0274969
0.437516
-0.0281648
0.417061
-0.0289336
0.39769
-0.0297484
0.379122
-0.0306197
0.361314
-0.0317682
0.344521
-0.0333467
0.328666
-0.0350209
0.31337
-0.0364286
0.298566
-0.0374609
0.284373
-0.0382984
0.270901
-0.0390812
0.258094
-0.0397737
0.245834
-0.0403448
0.234063
-0.0407837
0.222772
-0.0411096
0.211967
-0.0413259
0.201616
-0.0414735
0.191719
-0.0415339
0.182223
-0.0413712
0.17305
-0.0409549
0.164243
-0.0404476
0.155856
-0.0399244
0.147804
-0.0393028
0.140025
-0.0385195
0.132552
-0.0378257
0.1257
-0.0365282
0.118536
-0.0345843
0.110465
-0.0312325
0.100437
-0.0253035
0.085505
-0.0155929
0.060496
-0.00253973
0.0221565
-0.000507853
-0.00245842
0.965533
-0.00822316
0.982644
-0.0125271
0.932876
-0.0160661
0.885207
-0.018479
0.839661
-0.0203395
0.797187
-0.0216423
0.756949
-0.0226368
0.71896
-0.0235473
0.683173
-0.0242081
0.649119
-0.024566
0.61701
-0.0247454
0.586895
-0.0250089
0.558605
-0.0253302
0.531797
-0.0257165
0.506474
-0.0262532
0.482539
-0.0269052
0.459785
-0.0276831
0.438294
-0.0285627
0.417941
-0.029528
0.398655
-0.0306997
0.380294
-0.0319086
0.362522
-0.0329065
0.345519
-0.0335529
0.329312
-0.0341279
0.313945
-0.0349719
0.29941
-0.0361218
0.285522
-0.0373428
0.272122
-0.038458
0.25921
-0.0394659
0.246842
-0.0403981
0.234995
-0.0412558
0.22363
-0.0419964
0.212707
-0.0425896
0.202209
-0.0429781
0.192107
-0.0431666
0.182412
-0.0433102
0.173193
-0.0434578
0.16439
-0.0434319
0.15583
-0.0431291
0.147502
-0.04264
0.139536
-0.042198
0.13211
-0.0415336
0.125036
-0.040148
0.11715
-0.0379748
0.108292
-0.0339361
0.0963985
-0.0261046
0.0776735
-0.0132976
0.047689
-0.0016859
0.0105448
-0.00219375
-0.00299907
0.968532
-0.00796359
0.987608
-0.0122162
0.937129
-0.0159347
0.888925
-0.0190054
0.842732
-0.0214274
0.799609
-0.0231486
0.75867
-0.0241493
0.719961
-0.0245918
0.683615
-0.0247451
0.649273
-0.0248651
0.61713
-0.0248316
0.586862
-0.0247249
0.558498
-0.0246886
0.531761
-0.0247054
0.506491
-0.0248248
0.482658
-0.0251461
0.460106
-0.0256419
0.43879
-0.0263795
0.418678
-0.0272318
0.399508
-0.0281585
0.38122
-0.029317
0.363681
-0.0308472
0.347049
-0.0328331
0.331298
-0.034949
0.316061
-0.0367714
0.301232
-0.0382491
0.287
-0.0395561
0.273429
-0.0408192
0.260473
-0.0420174
0.24804
-0.0430755
0.236054
-0.0439555
0.22451
-0.0446892
0.213441
-0.0453095
0.202829
-0.0458816
0.192679
-0.046413
0.182943
-0.0467291
0.173509
-0.0467282
0.164389
-0.0465769
0.155679
-0.0464288
0.147354
-0.0462767
0.139384
-0.0461621
0.131995
-0.0453634
0.124237
-0.0439736
0.11576
-0.0412837
0.105602
-0.0358022
0.090917
-0.0255094
0.0673808
-0.00925084
0.0314304
-0.0013911
0.0026851
-0.00358485
-0.0045368
0.973069
-0.0112379
0.994309
-0.0160465
0.941937
-0.0196502
0.892529
-0.0219535
0.845035
-0.0236271
0.801282
-0.0246406
0.759683
-0.0252577
0.720578
-0.0254091
0.683767
-0.0252502
0.649114
-0.0249531
0.616833
-0.0246327
0.586541
-0.0242377
0.558103
-0.0239482
0.531472
-0.0239075
0.50645
-0.0240885
0.482839
-0.0244943
0.460512
-0.025115
0.439411
-0.0259226
0.419486
-0.0270458
0.400631
-0.0284126
0.382587
-0.0298407
0.365109
-0.0311389
0.348348
-0.0321914
0.332351
-0.0332242
0.317094
-0.0345931
0.302601
-0.0362767
0.288684
-0.0380497
0.275202
-0.0397234
0.262146
-0.0412526
0.249569
-0.042701
0.237502
-0.0441038
0.225913
-0.0454174
0.214754
-0.0465841
0.203996
-0.0475174
0.193612
-0.0481772
0.183603
-0.0487515
0.174084
-0.0493832
0.165021
-0.049925
0.156221
-0.0502097
0.147638
-0.0504077
0.139582
-0.0502532
0.131841
-0.0494605
0.123444
-0.0477992
0.114099
-0.0439354
0.101738
-0.0357312
0.0827128
-0.0213642
0.0530138
-0.00532494
0.0153911
-0.000537001
-0.00210284
-0.00412186
-0.00425869
0.977327
-0.0106294
1.00068
-0.0160356
0.947344
-0.020685
0.897179
-0.0239884
0.848339
-0.0261654
0.803459
-0.0273912
0.760909
-0.0277919
0.720979
-0.0275804
0.683555
-0.0269163
0.64845
-0.0260269
0.615944
-0.0251861
0.585701
-0.0243395
0.557257
-0.0234764
0.530608
-0.0227129
0.505686
-0.0222228
0.482349
-0.0220811
0.46037
-0.0223343
0.439664
-0.0229037
0.420055
-0.0237029
0.40143
-0.0248076
0.383692
-0.0262476
0.366549
-0.0281791
0.350279
-0.0305985
0.33477
-0.0332514
0.319746
-0.0356676
0.305018
-0.0377863
0.290803
-0.0397357
0.277151
-0.0416372
0.264048
-0.0435079
0.25144
-0.0452487
0.239243
-0.046776
0.22744
-0.0481001
0.216078
-0.0492688
0.205165
-0.0503836
0.194727
-0.0515263
0.184746
-0.0525121
0.175069
-0.0531311
0.16564
-0.0535089
0.156598
-0.0539445
0.148074
-0.0544693
0.140106
-0.0543125
0.131684
-0.0534631
0.122595
-0.0509546
0.111591
-0.0450352
0.0958189
-0.0333202
0.0709978
-0.014451
0.0341445
-0.00283391
0.00377407
6.07224e-06
-0.00494282
-0.00411578
-0.00748458
0.984812
-0.0154396
1.00864
-0.0211239
0.953028
-0.0253736
0.901428
-0.0282907
0.851256
-0.0301809
0.80535
-0.0309402
0.761669
-0.0309386
0.720977
-0.0303682
0.682985
-0.0292951
0.647377
-0.02766
0.614309
-0.0259223
0.583963
-0.0244232
0.555757
-0.0232217
0.529407
-0.0223097
0.504774
-0.0217185
0.481758
-0.0214716
0.460124
-0.0215876
0.43978
-0.02219
0.420658
-0.0232396
0.40248
-0.0246361
0.385088
-0.0262527
0.368166
-0.0278769
0.351903
-0.0294357
0.336329
-0.0310317
0.321343
-0.03299
0.306976
-0.0353083
0.293121
-0.0377776
0.279621
-0.040194
0.266464
-0.0424505
0.253696
-0.044583
0.241375
-0.0466587
0.229516
-0.0486632
0.218083
-0.0505455
0.207047
-0.0521996
0.196381
-0.0534968
0.186043
-0.0546028
0.176175
-0.0557896
0.166827
-0.0570434
0.157852
-0.058171
0.149202
-0.058657
0.140592
-0.0584122
0.131439
-0.057077
0.12126
-0.0530499
0.107564
-0.0436172
0.0863862
-0.0266541
0.0540347
-0.00798349
0.0154739
-0.00140882
-0.0028006
0.000127185
-0.00647883
-0.0039886
-0.00835016
0.993162
-0.0162667
1.01655
-0.0231368
0.959898
-0.028618
0.90691
-0.0323461
0.854984
-0.0348365
0.80784
-0.0359926
0.762825
-0.0357983
0.720783
-0.0346453
0.681832
-0.0330271
0.645758
-0.0308963
0.612178
-0.0284084
0.581475
-0.0258755
0.553224
-0.0235019
0.527033
-0.0215028
0.502775
-0.0199739
0.480229
-0.0190241
0.459174
-0.0186378
0.439393
-0.018691
0.420711
-0.019265
0.403054
-0.0203382
0.386162
-0.0219728
0.3698
-0.0242387
0.354169
-0.0271044
0.339195
-0.03031
0.324548
-0.033428
0.310094
-0.0363147
0.296007
-0.0390662
0.282372
-0.041755
0.269153
-0.0444177
0.256359
-0.0469785
0.243936
-0.0493179
0.231855
-0.0514017
0.220167
-0.0532472
0.208893
-0.0549625
0.198097
-0.0567477
0.187828
-0.0585063
0.177934
-0.0599224
0.168243
-0.0609571
0.158887
-0.0618807
0.150125
-0.0623412
0.141053
-0.0620479
0.131146
-0.0595938
0.118805
-0.0526854
0.100655
-0.0389034
0.0726043
-0.0168902
0.0320215
-0.00389405
0.00247779
-0.000410648
-0.006284
0.000264743
-0.00715422
-0.00372386
-0.00986282
1.00302
-0.0203703
1.02706
-0.0284798
0.968007
-0.0346955
0.913125
-0.0386013
0.85889
-0.0408257
0.810065
-0.0415979
0.763597
-0.0412399
0.720425
-0.0397423
0.680334
-0.037439
0.643455
-0.0346389
0.609378
-0.0314699
0.578306
-0.0282701
0.550025
-0.0253387
0.524102
-0.0227666
0.500203
-0.0206601
0.478122
-0.0191494
0.457663
-0.0183667
0.438611
-0.0183389
0.420683
-0.018962
0.403677
-0.0201629
0.387362
-0.021768
0.371405
-0.0235786
0.35598
-0.0255242
0.34114
-0.0276963
0.32672
-0.0303328
0.31273
-0.0334044
0.299079
-0.0366571
0.285625
-0.0399333
0.272429
-0.043078
0.259504
-0.0460506
0.246909
-0.0489187
0.234723
-0.0516944
0.222942
-0.0543681
0.211566
-0.0568535
0.200582
-0.0589181
0.189893
-0.0606057
0.179622
-0.0623455
0.169983
-0.0642853
0.160827
-0.0657498
0.15159
-0.0663508
0.141654
-0.0653036
0.130099
-0.0606178
0.11412
-0.049321
0.0893582
-0.0286518
0.0519351
-0.00864394
0.0120136
-0.00185851
-0.00430764
-7.76326e-05
-0.00806488
0.000196146
-0.007428
-0.00352771
-0.0101721
1.0132
-0.021008
1.0379
-0.0304485
0.977448
-0.0383934
0.92107
-0.044392
0.864888
-0.0484773
0.81415
-0.0502986
0.765418
-0.0500752
0.720201
-0.0482705
0.678529
-0.0451337
0.640318
-0.0411442
0.605388
-0.0365449
0.573707
-0.0317141
0.545194
-0.0271388
0.519527
-0.0231382
0.496203
-0.0198545
0.474839
-0.0173571
0.455166
-0.0156265
0.43688
-0.014698
0.419755
-0.0145945
0.403573
-0.0153405
0.388109
-0.0169899
0.373055
-0.0194596
0.358449
-0.0227358
0.344416
-0.0264806
0.330465
-0.030207
0.316457
-0.0338825
0.302755
-0.0375535
0.289296
-0.0411621
0.276038
-0.0447441
0.263086
-0.0482436
0.250408
-0.0515176
0.237997
-0.0544955
0.22592
-0.0571473
0.214218
-0.0595264
0.202961
-0.0619273
0.192294
-0.0643886
0.182083
-0.0665867
0.172181
-0.0683584
0.162598
-0.0694353
0.152667
-0.0694598
0.141678
-0.0667139
0.127353
-0.0585897
0.105995
-0.0415758
0.0723443
-0.01692
0.0272794
-0.00476802
-0.000138361
-0.00121254
-0.00786312
-0.00012276
-0.00915466
7.68918e-05
-0.00762765
-0.00345082
-0.0132658
1.02646
-0.0254501
1.05008
-0.0361896
0.988187
-0.0448027
0.929683
-0.0509177
0.871003
-0.0552199
0.818452
-0.0573444
0.767543
-0.0575168
0.720374
-0.0557521
0.676765
-0.0524874
0.637054
-0.048312
0.601213
-0.0434578
0.568853
-0.0381016
0.539838
-0.0326656
0.514091
-0.0275818
0.491119
-0.0231591
0.470416
-0.0196514
0.451658
-0.0172263
0.434455
-0.0158672
0.418396
-0.0155289
0.403235
-0.0160533
0.388633
-0.0172384
0.37424
-0.0189929
0.360204
-0.0210785
0.346502
-0.0237207
0.333107
-0.0271413
0.319877
-0.0309803
0.306594
-0.0350802
0.293396
-0.0393211
0.280279
-0.0434759
0.267241
-0.0474497
0.254382
-0.0512565
0.241804
-0.0548998
0.229564
-0.0583999
0.217718
-0.0617599
0.206321
-0.0646994
0.195233
-0.0671098
0.184493
-0.0693887
0.17446
-0.0714702
0.16468
-0.0727805
0.153977
-0.0720359
0.140934
-0.066716
0.122033
-0.0530587
0.0923381
-0.0284699
0.0477555
-0.00875704
0.00756648
-0.00256025
-0.00633515
-0.000825568
-0.0095978
-0.000257115
-0.00972312
-5.42777e-05
-0.00783049
-0.0035051
-0.0117529
1.03822
-0.0237601
1.06209
-0.0365495
1.00098
-0.048125
0.941259
-0.0576134
0.880492
-0.0648079
0.825646
-0.0690914
0.771826
-0.0704312
0.721713
-0.0691065
0.67544
-0.0651668
0.633114
-0.0592327
0.595279
-0.0522222
0.561842
-0.0447146
0.53233
-0.0371443
0.50652
-0.0301589
0.484134
-0.0240659
0.464323
-0.0189766
0.446569
-0.0150368
0.430515
-0.0123316
0.41569
-0.0108973
0.401801
-0.010816
0.388552
-0.0121349
0.375559
-0.0145543
0.362623
-0.0181378
0.350085
-0.0221604
0.33713
-0.0263287
0.324046
-0.0308679
0.311133
-0.0354967
0.298025
-0.0401222
0.284904
-0.0447626
0.271881
-0.049344
0.258963
-0.05371
0.24617
-0.0577189
0.233573
-0.061318
0.221317
-0.0644726
0.209476
-0.0674838
0.198244
-0.0705585
0.187568
-0.0734004
0.177302
-0.0752921
0.166571
-0.0754457
0.154131
-0.0723814
0.137869
-0.0625506
0.112202
-0.0420688
0.0718563
-0.0162301
0.0219167
-0.00504797
-0.00361561
-0.00153673
-0.00984639
-0.000344053
-0.0107905
-8.13476e-05
-0.00998582
-6.42673e-05
-0.00784757
-0.00356936
-0.00905333
1.04727
-0.023682
1.07672
-0.0387118
1.01601
-0.0509247
0.953472
-0.0613674
0.890934
-0.0696039
0.833883
-0.0751214
0.777344
-0.0777576
0.72435
-0.0774
0.675082
-0.0745312
0.630245
-0.0694779
0.590226
-0.0628167
0.555181
-0.0550908
0.524604
-0.0466827
0.498112
-0.0381897
0.475641
-0.0305124
0.456646
-0.0240483
0.440105
-0.0189887
0.425456
-0.0154065
0.412108
-0.0132744
0.399669
-0.0122918
0.387569
-0.0123649
0.375632
-0.0134582
0.363717
-0.0153222
0.351949
-0.018443
0.34025
-0.0225078
0.328111
-0.0269931
0.315618
-0.0320013
0.303033
-0.0372834
0.290186
-0.0425878
0.277185
-0.0477333
0.264109
-0.0526605
0.251097
-0.0573549
0.238267
-0.0617757
0.225738
-0.0660374
0.213737
-0.0698561
0.202063
-0.0730384
0.19075
-0.075369
0.179632
-0.076566
0.167768
-0.0756625
0.153227
-0.0696296
0.131837
-0.0542023
0.0967748
-0.0266784
0.0443324
-0.0076151
0.00285342
-0.00152485
-0.00970586
0.000340022
-0.0117113
0.000696411
-0.0111469
0.000461854
-0.00975127
0.000128286
-0.007514
-0.00344108
-0.00417763
1.05145
-0.0175579
1.0901
-0.0341869
1.03264
-0.0503245
0.969609
-0.0655726
0.906182
-0.078617
0.846927
-0.0881253
0.786852
-0.0939189
0.730143
-0.0953749
0.676538
-0.0925108
0.627381
-0.0858498
0.583565
-0.0764907
0.545822
-0.0658875
0.514001
-0.0550833
0.487308
-0.0442655
0.464823
-0.0340271
0.446407
-0.025074
0.431152
-0.0177395
0.418121
-0.0121936
0.406562
-0.0085713
0.396046
-0.00709633
0.386094
-0.00738586
0.375921
-0.00933134
0.365662
-0.0126346
0.355253
-0.0164961
0.344112
-0.0210287
0.332643
-0.0262777
0.320867
-0.0318223
0.308577
-0.0375382
0.295902
-0.0433649
0.283012
-0.0491844
0.269928
-0.054804
0.256717
-0.0600292
0.243492
-0.0647937
0.230503
-0.0688354
0.217779
-0.072562
0.20579
-0.0763099
0.194498
-0.0791362
0.182459
-0.07945
0.168082
-0.0755357
0.149313
-0.0642134
0.120514
-0.0409514
0.0735129
-0.0133358
0.0167168
-0.00196448
-0.0085179
0.00144808
-0.0131184
0.00245265
-0.0127158
0.00224383
-0.0109381
0.00141815
-0.00892558
0.000499582
-0.00659544
-0.0029415
-0.00323352
1.05468
-0.0163182
1.10318
-0.0323613
1.04868
-0.0468182
0.984066
-0.0623025
0.921667
-0.0769793
0.861604
-0.0890752
0.798948
-0.0974599
0.738528
-0.101559
0.680638
-0.101968
0.62779
-0.0986423
0.580238
-0.0914147
0.538594
-0.0810033
0.50359
-0.0689103
0.475215
-0.0566476
0.45256
-0.0448806
0.43464
-0.0343009
0.420572
-0.0254105
0.409231
-0.0184836
0.399635
-0.0133503
0.390913
-0.00966281
0.382407
-0.00784385
0.374102
-0.0074552
0.365274
-0.00877258
0.35657
-0.0120476
0.347387
-0.016462
0.337058
-0.0215889
0.325994
-0.0274128
0.314401
-0.0338091
0.302298
-0.0404548
0.289658
-0.046977
0.276451
-0.0531574
0.262897
-0.0591515
0.249486
-0.064986
0.236337
-0.0703105
0.223104
-0.0751161
0.210595
-0.0785942
0.197976
-0.0804386
0.184303
-0.07902
0.166664
-0.0709858
0.141278
-0.0540341
0.103563
-0.0240442
0.043523
-0.00420888
-0.00311852
0.002258
-0.0149848
0.0044399
-0.0153003
0.00482015
-0.0130961
0.00407222
-0.0101901
0.00263592
-0.00748929
0.00103843
-0.00499795
-0.00190307
0.00594655
1.04873
-0.00392907
1.11306
-0.0217302
1.06648
-0.0426345
1.00497
-0.0625278
0.94156
-0.0825135
0.88159
-0.10058
0.817015
-0.114407
0.752355
-0.121699
0.68793
-0.121851
0.627941
-0.117125
0.575513
-0.108518
0.529987
-0.0964578
0.49153
-0.0821785
0.460936
-0.0668099
0.437192
-0.0515809
0.419411
-0.0374327
0.406424
-0.0253513
0.397149
-0.0159153
0.390199
-0.00939117
0.384389
-0.00531973
0.378335
-0.00361165
0.372394
-0.00435323
0.366015
-0.00652025
0.358737
-0.00980788
0.350675
-0.0145035
0.341753
-0.020241
0.331732
-0.0266348
0.320795
-0.0335864
0.30925
-0.0408507
0.296922
-0.0480516
0.283651
-0.0550067
0.269853
-0.0617694
0.256249
-0.0682409
0.242809
-0.0736066
0.228469
-0.0780242
0.215013
-0.0805072
0.200459
-0.0801017
0.183898
-0.0760666
0.162629
-0.0659373
0.131149
-0.039997
0.0776223
-0.0105372
0.0140632
0.00108822