/*--------------------------------*- C++ -*----------------------------------*\
| =========                 |                                                 |
| \\      /  F ield         | OpenFOAM: The Open Source CFD Toolbox           |
|  \\    /   O peration     | Version:  v1912                                 |
|   \\  /    A nd           | Website:  www.openfoam.com                      |
|    \\/     M anipulation  |                                                 |
\*---------------------------------------------------------------------------*/
FoamFile
{
    version     2.0;
    format      ascii;
    class       volVectorField;
    location    "0.32";
    object      U;
}
// * * * * * * * * * * * * * * * * * * * * * * * * * * * * * * * * * * * * * //

dimensions      [0 1 -1 0 0 0 0];


internalField   nonuniform List<vector> 
6600
(
(39.8391 -0.0585603 0)
(40.0826 -0.0812388 2.60027e-20)
(40.1291 -0.0176888 1.81228e-18)
(40.1584 0.0603148 0)
(40.1898 0.150111 2.25093e-18)
(40.2364 0.277578 7.746e-20)
(40.2961 0.437202 -8.60491e-20)
(40.3587 0.584527 -9.52261e-20)
(40.4097 0.757144 1.91284e-18)
(40.4284 0.945688 -1.45791e-19)
(40.4663 1.12082 0)
(40.522 1.30324 -2.34015e-18)
(40.5749 1.49861 0)
(40.6139 1.70246 -2.67463e-18)
(40.6525 1.91121 -3.46881e-18)
(40.6837 2.13572 -1.82961e-18)
(40.6998 2.36507 0)
(40.714 2.60921 0)
(40.7245 2.87249 2.90751e-18)
(40.7247 3.10931 -2.79701e-18)
(40.7128 3.3889 -4.00726e-19)
(40.6657 3.73721 -1.39729e-18)
(40.6279 4.09763 -2.58478e-18)
(40.582 4.47208 5.7009e-19)
(40.5384 4.88855 2.00336e-18)
(40.4857 5.36402 0)
(40.4269 5.8885 4.82107e-18)
(40.36 6.45184 0)
(40.2862 7.03959 -2.36373e-18)
(40.2148 7.66479 -1.5182e-18)
(40.0846 8.33685 -3.0719e-19)
(39.9477 9.07196 -1.82106e-18)
(39.8223 9.86363 -7.37306e-19)
(39.7226 10.7397 1.43017e-18)
(39.66 11.6826 3.53855e-19)
(39.5713 12.6825 1.54619e-18)
(39.4843 13.7443 2.93545e-18)
(39.4113 14.8938 2.64157e-18)
(39.3368 16.1499 -1.81339e-18)
(39.2595 17.5286 1.82951e-18)
(39.1968 19.0021 8.43086e-19)
(39.1471 20.5715 0)
(39.1124 22.2284 2.41444e-19)
(39.1467 24.0431 -4.34751e-19)
(39.2063 25.9206 0)
(39.3155 27.9859 -1.88418e-18)
(39.4215 29.9976 -4.67083e-18)
(39.9373 32.4969 0)
(38.4042 33.7393 0)
(28.3351 27.0649 -2.89386e-18)
(39.7146 -0.0478666 1.53725e-18)
(40.136 -0.0799937 -1.65455e-18)
(40.171 0.023755 0)
(40.2081 0.13688 -3.13942e-20)
(40.2417 0.259329 2.2454e-18)
(40.2862 0.400226 7.6964e-20)
(40.3457 0.533369 -2.73735e-22)
(40.4109 0.683963 -9.47881e-20)
(40.4728 0.836987 0)
(40.5485 0.983419 -3.60912e-18)
(40.6183 1.15487 -1.29505e-19)
(40.6826 1.33797 2.28216e-18)
(40.7409 1.53395 2.38003e-18)
(40.7849 1.73889 1.48844e-18)
(40.8269 1.95057 -6.76671e-22)
(40.8626 2.17917 2.22959e-19)
(40.8854 2.41583 -1.95823e-18)
(40.9093 2.66947 0)
(40.9276 2.98517 0)
(40.9428 3.30565 2.83934e-18)
(40.9488 3.62285 3.88561e-19)
(40.9234 3.97672 -2.11389e-18)
(40.9195 4.3543 -1.87035e-18)
(40.916 4.75478 -2.07706e-18)
(40.8831 5.17229 -1.70429e-18)
(40.8235 5.60595 -6.66788e-19)
(40.7492 6.05883 -8.12649e-19)
(40.7127 6.56847 -8.22474e-19)
(40.6616 7.15896 2.36841e-18)
(40.5961 7.80368 2.65949e-19)
(40.5713 8.50032 -2.87482e-18)
(40.5797 9.27026 2.5339e-18)
(40.5846 10.097 1.71791e-18)
(40.553 10.9789 -2.1324e-18)
(40.4899 11.9168 3.85884e-19)
(40.4081 12.9331 -1.58147e-18)
(40.3644 14.0478 1.00057e-18)
(40.362 15.2498 -1.01221e-18)
(40.3851 16.521 -4.44144e-19)
(40.4486 17.8646 -3.8379e-19)
(40.5335 19.2871 0)
(40.6366 20.8144 0)
(40.8015 22.4278 7.24425e-19)
(41.0293 24.1632 -8.65969e-19)
(41.3092 25.9741 -3.24078e-18)
(41.6626 27.9712 1.94577e-18)
(41.952 29.8827 6.70888e-18)
(42.5926 32.2111 0)
(41.0918 32.9949 -7.01282e-18)
(29.6811 25.9488 3.1495e-18)
(39.6153 -0.0525123 -3.43279e-20)
(40.2356 -0.10874 1.68949e-18)
(40.2752 0.0210354 1.79525e-18)
(40.3165 0.133235 -2.41397e-22)
(40.3642 0.263858 -1.40489e-19)
(40.4257 0.421223 7.65139e-20)
(40.5029 0.60267 0)
(40.5753 0.760582 0)
(40.6339 0.950586 0)
(40.6567 1.15369 1.97184e-18)
(40.706 1.33933 -1.27659e-19)
(40.7773 1.5303 -2.29738e-18)
(40.8467 1.73347 -1.15699e-18)
(40.9034 1.94705 2.63191e-18)
(40.9557 2.16805 1.53584e-18)
(41.0027 2.40496 -2.17626e-19)
(41.035 2.64636 4.11365e-18)
(41.0734 2.88864 -2.10606e-18)
(41.1066 3.15294 -2.33717e-18)
(41.1295 3.43318 0)
(41.1418 3.74324 -1.43669e-18)
(41.1274 4.10758 1.70086e-18)
(41.1234 4.48939 1.8928e-18)
(41.1332 4.89958 2.1033e-18)
(41.1499 5.36404 1.77739e-18)
(41.1787 5.889 -2.40596e-19)
(41.1899 6.47465 -3.40648e-19)
(41.177 7.05891 -1.00945e-18)
(41.2035 7.65605 -4.05882e-19)
(41.2263 8.2948 1.45156e-18)
(41.2109 9.00602 4.70938e-19)
(41.1554 9.76047 0)
(41.1222 10.569 -1.98693e-18)
(41.132 11.452 4.68361e-19)
(41.2118 12.4003 9.6345e-19)
(41.2991 13.3997 1.09898e-18)
(41.3895 14.4455 -7.46767e-19)
(41.5026 15.5668 -3.07183e-19)
(41.6385 16.782 4.74554e-19)
(41.7923 18.1041 0)
(42.0015 19.5006 1.07713e-18)
(42.2435 20.9781 0)
(42.53 22.5165 0)
(42.9185 24.1714 3.21756e-18)
(43.372 25.87 1.967e-18)
(43.8957 27.727 -3.68206e-18)
(44.4942 29.6059 -3.9405e-18)
(45.2627 31.6291 0)
(43.6637 31.9772 -4.25122e-18)
(30.6845 24.465 4.65852e-18)
(39.5289 -0.0227282 -1.51353e-18)
(40.3422 -0.0556385 1.26289e-20)
(40.3539 0.133755 -1.84723e-18)
(40.4102 0.252001 -1.91316e-18)
(40.4479 0.39021 -2.16225e-18)
(40.5073 0.54681 -1.15165e-18)
(40.5829 0.688185 -8.3318e-20)
(40.6558 0.851693 0)
(40.7332 1.00411 1.60665e-18)
(40.8156 1.1649 1.89075e-18)
(40.8849 1.34748 -1.25216e-19)
(40.9585 1.54098 -1.38626e-19)
(41.0299 1.74511 -1.09756e-18)
(41.0925 1.95923 -2.22565e-19)
(41.1512 2.18211 1.2712e-19)
(41.2081 2.4294 -2.10398e-19)
(41.2537 2.69567 1.41076e-19)
(41.3001 2.98512 2.38295e-18)
(41.3535 3.30834 3.18163e-18)
(41.4071 3.63183 0)
(41.4504 3.95505 1.04275e-19)
(41.465 4.3338 0)
(41.4986 4.73227 0)
(41.534 5.14651 -4.63535e-19)
(41.5439 5.57759 1.47643e-18)
(41.5394 6.01853 1.45689e-18)
(41.5632 6.50204 -3.049e-19)
(41.6051 7.06308 1.39408e-18)
(41.6262 7.69387 0)
(41.6598 8.36774 0)
(41.7181 9.06969 6.31763e-19)
(41.837 9.84253 0)
(41.9875 10.6807 5.42397e-19)
(42.1081 11.569 6.47406e-19)
(42.1905 12.5011 -1.08057e-18)
(42.2615 13.5032 -7.2153e-19)
(42.3919 14.5941 -1.16177e-19)
(42.607 15.7607 8.0149e-20)
(42.8624 16.9755 4.20266e-19)
(43.1655 18.2347 4.9303e-19)
(43.5049 19.557 -2.95632e-18)
(43.9022 20.9614 0)
(44.3967 22.428 0)
(44.9618 23.9703 -1.96539e-18)
(45.6063 25.5558 -3.49339e-18)
(46.3343 27.2877 -8.50017e-19)
(47.0517 29.0392 -6.08972e-18)
(47.7497 30.7864 6.72732e-18)
(45.8351 30.6661 9.39918e-18)
(31.2605 22.6824 0)
(39.4715 -0.0023037 -5.63972e-21)
(40.4755 -0.0657471 1.56841e-18)
(40.5082 0.123531 1.71183e-18)
(40.5691 0.226563 1.9859e-18)
(40.6277 0.391737 0)
(40.6987 0.565639 3.05726e-20)
(40.7836 0.757113 0)
(40.861 0.929694 -8.97582e-20)
(40.9243 1.13571 -3.08213e-18)
(40.9623 1.34347 -1.89734e-18)
(41.0266 1.54016 1.221e-19)
(41.1127 1.741 1.34415e-19)
(41.1954 1.94966 -1.49584e-19)
(41.2669 2.16692 -1.34895e-18)
(41.3351 2.39084 -3.1003e-18)
(41.4001 2.62586 2.02494e-19)
(41.4603 2.86828 -3.55715e-18)
(41.5215 3.10752 2.44411e-19)
(41.5831 3.39491 -1.1235e-18)
(41.6343 3.71597 -5.9438e-19)
(41.6883 4.05518 1.68915e-18)
(41.7154 4.42773 0)
(41.7583 4.82165 0)
(41.8297 5.25654 -7.82786e-19)
(41.9143 5.75133 -9.71904e-19)
(42.019 6.31154 1.11778e-18)
(42.0975 6.90296 -2.62838e-19)
(42.1775 7.49382 0)
(42.3029 8.10367 2.60355e-19)
(42.4178 8.76369 -2.90239e-19)
(42.5143 9.48561 -6.42106e-19)
(42.5858 10.249 -5.47909e-19)
(42.6696 11.0498 2.34026e-19)
(42.8044 11.9135 -7.56246e-20)
(43.0381 12.843 8.41529e-20)
(43.3176 13.8141 0)
(43.6007 14.8179 1.55675e-19)
(43.907 15.8768 1.6572e-18)
(44.2672 17.0139 -8.77694e-19)
(44.6589 18.2357 -1.2509e-18)
(45.127 19.5028 1.89778e-18)
(45.6446 20.8198 0)
(46.2181 22.1717 0)
(46.905 23.5989 -3.291e-18)
(47.6792 25.0292 7.24266e-18)
(48.5232 26.5737 1.98122e-18)
(49.4608 28.2535 3.67346e-18)
(50.1204 29.6479 -7.99702e-18)
(47.7229 29.0948 6.78767e-19)
(31.3777 20.6139 -1.26359e-17)
(39.421 0.00517462 1.4167e-18)
(40.6171 -0.00217898 -4.79302e-20)
(40.6192 0.255172 -1.746e-18)
(40.6987 0.357825 9.29141e-19)
(40.7395 0.526187 0)
(40.8066 0.681879 1.20419e-18)
(40.8884 0.826691 -3.98608e-20)
(40.9679 0.997639 -1.37967e-18)
(41.0586 1.1536 1.575e-18)
(41.1457 1.32124 0)
(41.222 1.5135 1.17484e-19)
(41.311 1.7163 8.87564e-19)
(41.4029 1.92856 -1.26328e-18)
(41.4883 2.15601 1.59128e-19)
(41.5744 2.39806 1.60517e-18)
(41.6574 2.66185 -1.9273e-19)
(41.7314 2.95514 1.13648e-18)
(41.8105 3.252 -2.31689e-19)
(41.9046 3.56512 2.48108e-19)
(41.9969 3.88524 7.59124e-19)
(42.0818 4.23157 9.69764e-19)
(42.1641 4.62745 5.72657e-21)
(42.2439 5.03893 3.42711e-19)
(42.3309 5.46048 1.26932e-18)
(42.4026 5.89698 0)
(42.4688 6.33813 -8.91877e-19)
(42.5641 6.82537 1.93855e-19)
(42.6848 7.40548 -2.5979e-20)
(42.7919 8.04378 -8.66537e-20)
(42.9313 8.71352 1.98638e-19)
(43.1144 9.42168 -1.61827e-19)
(43.3567 10.1904 3.43204e-19)
(43.6581 11.0178 0)
(43.9452 11.8819 0)
(44.1836 12.779 0)
(44.4171 13.7285 0)
(44.7289 14.7495 1.38066e-18)
(45.1494 15.8349 -2.73531e-18)
(45.6173 16.9474 0)
(46.1416 18.0735 2.61692e-20)
(46.7063 19.2384 -3.36772e-19)
(47.3492 20.4533 -4.66763e-18)
(48.1003 21.7007 2.5877e-18)
(48.919 22.9831 0)
(49.8194 24.2701 2.63526e-18)
(50.795 25.6723 -9.5376e-18)
(51.7366 27.1676 6.84614e-18)
(52.1335 28.2689 5.10119e-18)
(49.0301 27.2347 1.88721e-17)
(30.906 18.2654 -1.41449e-17)
(39.3945 0.0331928 -1.39791e-18)
(40.7818 -0.0219817 -3.01434e-18)
(40.827 0.239643 2.60339e-20)
(40.9058 0.32025 -9.32371e-19)
(40.9581 0.521665 9.68048e-19)
(41.0345 0.693312 -3.48624e-20)
(41.1218 0.888867 1.25195e-18)
(41.2032 1.07306 1.3852e-18)
(41.2749 1.2845 1.51719e-18)
(41.3338 1.489 -5.18806e-20)
(41.4099 1.68867 -8.88221e-19)
(41.5051 1.8922 -4.86485e-20)
(41.6054 2.10117 1.1264e-18)
(41.6968 2.3177 0)
(41.7875 2.5396 0)
(41.8837 2.76897 8.87292e-20)
(41.9774 3.01299 1.46231e-18)
(42.0748 3.282 0)
(42.1719 3.59193 1.12457e-19)
(42.2753 3.92317 -1.16937e-18)
(42.3717 4.26777 -9.97001e-19)
(42.4605 4.64629 3.67164e-19)
(42.569 5.05151 0)
(42.7125 5.50156 -6.71671e-19)
(42.8769 6.01335 -1.45095e-19)
(43.0612 6.5946 1.61861e-19)
(43.2266 7.19217 0)
(43.3945 7.76558 0)
(43.6227 8.36438 -2.73e-19)
(43.8501 9.01608 7.08043e-20)
(44.0804 9.7228 1.41056e-19)
(44.2879 10.4642 2.57637e-20)
(44.4913 11.2316 2.37452e-19)
(44.7457 12.0458 -6.70742e-19)
(45.1259 12.9137 1.44641e-18)
(45.5854 13.8181 6.25696e-19)
(46.0463 14.7394 -9.59298e-19)
(46.5267 15.6864 1.38769e-18)
(47.0784 16.6877 -2.49409e-18)
(47.6651 17.7533 4.2589e-20)
(48.3332 18.8377 -3.81473e-19)
(49.0552 19.9412 2.39231e-18)
(49.8267 21.05 3.68121e-18)
(50.7089 22.1969 -4.08946e-18)
(51.6795 23.3124 2.6268e-18)
(52.6969 24.5072 0)
(53.7345 25.8933 4.16102e-18)
(53.937 26.6045 6.26324e-18)
(49.8886 25.1344 -1.30101e-17)
(29.764 15.6696 -4.07739e-18)
(39.4017 0.0434986 1.30225e-18)
(40.9462 0.0265261 1.4772e-18)
(40.9599 0.356018 1.27483e-20)
(41.0494 0.424418 -8.76795e-19)
(41.0929 0.642772 -1.97214e-18)
(41.1616 0.784963 1.09969e-18)
(41.2452 0.931141 -2.42696e-18)
(41.3314 1.09878 6.4412e-19)
(41.4275 1.26083 -1.47632e-18)
(41.5208 1.43194 -8.24453e-19)
(41.6153 1.62575 1.84975e-18)
(41.7182 1.83313 -1.09862e-18)
(41.8359 2.05172 -1.00746e-18)
(41.9507 2.28881 1.75153e-21)
(42.062 2.54156 -5.13765e-19)
(42.1742 2.81204 6.36742e-19)
(42.2836 3.09786 -7.52169e-19)
(42.4073 3.38539 0)
(42.5495 3.69297 0)
(42.6915 4.01805 0)
(42.8411 4.37491 -1.08642e-19)
(42.9898 4.77051 -3.93149e-19)
(43.1323 5.18185 -2.98081e-19)
(43.2849 5.60749 -1.23698e-19)
(43.4377 6.03696 0)
(43.5874 6.46014 0)
(43.7852 6.95189 9.40801e-20)
(43.999 7.5358 -3.08693e-20)
(44.2016 8.16006 -1.02682e-19)
(44.461 8.8161 1.24529e-19)
(44.7513 9.49878 8.04738e-20)
(45.1045 10.2242 4.58404e-19)
(45.5409 10.9972 -2.27561e-19)
(45.991 11.801 9.57498e-19)
(46.3794 12.6282 -6.89084e-19)
(46.756 13.4817 -3.4148e-19)
(47.2177 14.3874 1.85365e-19)
(47.7986 15.3477 9.94662e-19)
(48.4262 16.3148 1.04094e-18)
(49.1111 17.2613 1.72756e-18)
(49.8296 18.2223 -3.60271e-19)
(50.6266 19.2066 3.34368e-18)
(51.5323 20.1988 -3.71929e-18)
(52.4928 21.1898 0)
(53.5212 22.1627 0)
(54.6197 23.2526 0)
(55.4933 24.3316 0)
(55.2102 24.7811 0)
(49.9507 22.8148 -7.59973e-18)
(27.8319 12.9016 1.24804e-17)
(39.4247 0.0581836 -1.30488e-18)
(41.1489 -0.00716701 0)
(41.2015 0.32923 0)
(41.2791 0.37063 8.92425e-19)
(41.3291 0.611648 9.57008e-19)
(41.4123 0.776697 -1.10151e-18)
(41.5017 0.978082 1.21182e-18)
(41.5869 1.16581 -6.46172e-19)
(41.6677 1.36788 6.76517e-19)
(41.739 1.56847 8.24891e-19)
(41.824 1.76142 -8.52673e-19)
(41.9272 1.95397 8.15449e-19)
(42.0449 2.14983 1.4847e-18)
(42.1657 2.35126 0)
(42.2894 2.56794 5.94655e-19)
(42.421 2.79628 -7.14471e-19)
(42.557 3.05467 4.27946e-21)
(42.6916 3.33153 -6.28748e-19)
(42.8432 3.6403 7.44402e-19)
(43.0126 3.96547 0)
(43.157 4.30256 0)
(43.3204 4.67101 3.10758e-19)
(43.5051 5.0748 1.3029e-19)
(43.7251 5.52048 -2.33868e-19)
(43.9754 6.03698 -5.16435e-20)
(44.2564 6.62099 8.53594e-20)
(44.5084 7.19111 -4.86761e-20)
(44.7852 7.73861 -2.03859e-19)
(45.1176 8.32168 1.24236e-19)
(45.4487 8.94244 -1.73608e-19)
(45.7996 9.6031 1.17571e-19)
(46.1443 10.2925 -4.18573e-19)
(46.465 10.9998 4.36086e-19)
(46.8167 11.7339 -7.13312e-19)
(47.3125 12.5044 0)
(47.9133 13.3081 -8.3985e-19)
(48.5164 14.1134 -8.87516e-19)
(49.1252 14.9117 2.28379e-19)
(49.8067 15.7386 2.09068e-18)
(50.5166 16.6148 -2.06418e-18)
(51.3016 17.4882 -3.29473e-19)
(52.1397 18.3559 -3.80103e-18)
(53.0118 19.2043 8.99999e-18)
(53.9808 20.0601 6.43492e-19)
(55.031 20.8715 7.69222e-19)
(56.1459 21.8248 -3.68525e-18)
(56.8233 22.5684 0)
(56.1598 22.79 6.77956e-18)
(49.3715 20.3211 -3.58147e-18)
(25.0408 10.0396 0)
(39.4656 0.0705386 4.7849e-21)
(41.309 0.0323671 -6.50186e-23)
(41.3564 0.425579 -7.56266e-19)
(41.4378 0.461487 0)
(41.4797 0.712894 -1.42766e-20)
(41.5512 0.8366 -4.77991e-19)
(41.6367 0.985055 0)
(41.7272 1.15139 5.90806e-19)
(41.8323 1.31237 -7.19538e-19)
(41.944 1.48206 4.55468e-20)
(42.0613 1.67501 7.56407e-19)
(42.187 1.88235 -4.16417e-19)
(42.3201 2.09967 -5.31121e-19)
(42.4592 2.32569 0)
(42.6002 2.56215 0)
(42.7457 2.80935 0)
(42.8998 3.06843 -4.58294e-19)
(43.0799 3.33938 6.30877e-19)
(43.2684 3.63893 -9.99293e-19)
(43.4848 3.96684 6.82512e-20)
(43.7066 4.32132 -1.40029e-19)
(43.9148 4.70436 -2.41458e-19)
(44.1252 5.09694 4.29909e-19)
(44.3537 5.50885 2.7016e-19)
(44.5899 5.90567 0)
(44.8175 6.29929 -1.02599e-20)
(45.1112 6.77555 -2.58756e-19)
(45.4142 7.32729 2.22337e-19)
(45.7218 7.91254 -1.98006e-19)
(46.0953 8.52732 1.29318e-19)
(46.4885 9.16473 -2.41958e-19)
(46.9377 9.82725 9.54718e-19)
(47.4804 10.5199 -1.16252e-18)
(48.0698 11.2376 1.71369e-18)
(48.5838 11.9699 7.85809e-19)
(49.0632 12.7024 -1.89824e-18)
(49.6221 13.4656 2.44802e-18)
(50.3045 14.2765 -1.68e-18)
(51.0248 15.0802 6.32938e-21)
(51.7954 15.8339 0)
(52.5882 16.5801 3.01507e-18)
(53.4462 17.3283 2.10392e-18)
(54.4086 18.0692 2.67315e-19)
(55.4139 18.7773 -6.1311e-18)
(56.4729 19.4672 -2.52089e-19)
(57.5752 20.3074 -4.34838e-18)
(57.9193 20.7452 0)
(56.3781 20.6719 7.08817e-18)
(47.7373 17.7127 -1.18965e-17)
(21.3338 7.21862 0)
(39.5125 0.0869479 0)
(41.5561 -0.0159217 0)
(41.6112 0.36673 4.01979e-19)
(41.6815 0.387926 -2.51648e-20)
(41.7329 0.66266 4.47355e-19)
(41.8178 0.813032 4.9487e-19)
(41.9064 1.01577 0)
(41.9946 1.19551 -5.92161e-19)
(42.0796 1.38353 6.09729e-19)
(42.1631 1.56472 0)
(42.2672 1.73603 -1.11156e-18)
(42.3956 1.90833 -3.19344e-20)
(42.5408 2.0867 -5.08599e-20)
(42.6982 2.27735 5.67057e-20)
(42.8602 2.48956 0)
(43.0317 2.714 0)
(43.1998 2.95888 3.37163e-19)
(43.3849 3.21797 1.8249e-19)
(43.5968 3.49585 6.59062e-20)
(43.8136 3.79338 2.3941e-20)
(44.0333 4.10621 -4.63078e-20)
(44.2743 4.45729 2.18609e-20)
(44.5414 4.83488 -1.47051e-19)
(44.8342 5.25626 -4.38586e-20)
(45.1741 5.76096 -1.12233e-19)
(45.5494 6.31716 -2.16994e-19)
(45.8856 6.84736 1.13492e-19)
(46.2624 7.3587 3.40053e-19)
(46.6839 7.89793 0)
(47.0985 8.46165 0)
(47.5467 9.05185 0)
(48.0015 9.66802 -6.90719e-19)
(48.423 10.2977 -5.58381e-19)
(48.8413 10.9393 -5.98987e-19)
(49.4067 11.5969 9.2953e-19)
(50.0996 12.2819 1.1821e-18)
(50.7966 12.9597 -5.85618e-19)
(51.4768 13.6026 1.79482e-18)
(52.2207 14.2485 -1.0623e-18)
(52.9797 14.9318 -1.45606e-18)
(53.8011 15.5991 -1.84441e-18)
(54.6748 16.2426 2.0566e-18)
(55.5645 16.8452 0)
(56.5314 17.4411 3.42642e-18)
(57.594 18.0233 -1.88224e-18)
(58.4847 18.6194 2.29974e-18)
(58.5115 18.8166 0)
(56.085 18.4517 -3.53927e-18)
(45.1994 14.9566 2.08125e-18)
(16.581 4.42421 0)
(39.5635 0.0943622 2.81615e-19)
(41.733 0.0356307 0)
(41.7866 0.464383 7.07887e-19)
(41.8522 0.471871 -3.77635e-19)
(41.8869 0.736785 -4.34054e-19)
(41.9575 0.838127 1.43314e-20)
(42.043 0.988238 -1.59498e-20)
(42.1422 1.14339 0)
(42.2649 1.29453 -5.92709e-19)
(42.3903 1.45623 2.88415e-19)
(42.5287 1.63591 3.53837e-19)
(42.6703 1.82442 -3.99234e-19)
(42.8245 2.01813 1.82e-19)
(42.9974 2.21253 4.90829e-20)
(43.1784 2.41125 -2.63074e-20)
(43.3746 2.62839 0)
(43.5873 2.86119 2.43945e-19)
(43.8165 3.11317 -2.40714e-19)
(44.0693 3.38905 8.3821e-20)
(44.3601 3.69449 -6.73669e-21)
(44.6313 4.02018 -1.49606e-20)
(44.8977 4.36961 0)
(45.1798 4.73849 1.5033e-20)
(45.4926 5.11546 1.19731e-19)
(45.7958 5.4584 1.22944e-19)
(46.1024 5.81421 2.18174e-19)
(46.4778 6.24825 0)
(46.8603 6.74908 -2.51929e-19)
(47.2579 7.27826 -6.81657e-19)
(47.7245 7.82981 4.01928e-19)
(48.2034 8.40207 -9.61156e-19)
(48.7206 8.98877 -5.13372e-19)
(49.3257 9.59176 9.88598e-19)
(50.0105 10.21 -3.69246e-19)
(50.6183 10.8382 -9.37649e-19)
(51.156 11.4498 -5.37168e-19)
(51.7552 12.0677 -7.55629e-19)
(52.4785 12.728 0)
(53.226 13.3786 -1.30233e-18)
(54.0135 13.9599 2.88782e-18)
(54.812 14.5125 1.84562e-18)
(55.6542 15.0504 -2.20361e-18)
(56.59 15.5701 2.9462e-18)
(57.5665 16.0425 -1.55424e-18)
(58.6406 16.5663 3.97533e-18)
(59.1704 16.8893 2.86999e-20)
(58.7853 16.8974 0)
(54.7899 16.1135 7.2911e-18)
(41.2468 12.0638 -6.22628e-18)
(10.7102 1.78045 -2.31662e-18)
(39.618 0.104191 -2.84079e-19)
(41.9811 -0.0193866 2.96279e-19)
(42.0467 0.375817 -3.44214e-19)
(42.0991 0.376016 3.72284e-19)
(42.1479 0.674003 1.99424e-19)
(42.2247 0.800691 1.3837e-20)
(42.3066 0.98722 -7.61132e-21)
(42.39 1.1464 0)
(42.4796 1.30833 2.55339e-19)
(42.5812 1.45873 -4.35006e-19)
(42.7067 1.59853 0)
(42.8687 1.73913 1.99577e-20)
(43.0432 1.8957 -6.04535e-20)
(43.23 2.07065 -1.41279e-19)
(43.431 2.2539 1.81092e-19)
(43.6385 2.44478 -3.39577e-21)
(43.854 2.65084 -2.13779e-20)
(44.097 2.87625 0)
(44.3553 3.11184 9.93494e-20)
(44.6417 3.37155 -1.17184e-20)
(44.9472 3.64961 1.7176e-21)
(45.2589 3.96472 0)
(45.5999 4.29111 0)
(45.9589 4.67742 -2.74102e-20)
(46.3905 5.15634 3.99663e-20)
(46.8349 5.6574 -3.30797e-19)
(47.2522 6.13825 1.41517e-19)
(47.7142 6.59761 -8.72739e-20)
(48.21 7.08099 3.20194e-19)
(48.6914 7.58475 1.54896e-19)
(49.2011 8.1014 5.669e-19)
(49.7296 8.63188 -6.32358e-19)
(50.2272 9.17349 4.17773e-19)
(50.6828 9.72344 -4.69533e-19)
(51.2638 10.2741 -5.95538e-19)
(51.9953 10.8424 -6.72103e-19)
(52.7394 11.4064 0)
(53.4392 11.9168 1.67765e-18)
(54.1856 12.4013 -6.33899e-19)
(54.9305 12.9125 -1.58215e-18)
(55.7219 13.4069 1.91089e-18)
(56.5654 13.8668 -6.36171e-20)
(57.4107 14.2695 -1.52511e-18)
(58.3196 14.6779 -4.44267e-20)
(59.2376 15.0612 -1.97254e-18)
(59.4314 15.1468 -4.93236e-18)
(58.2521 14.9241 2.93562e-18)
(52.6291 13.5916 0)
(36.3876 8.94528 -4.20724e-18)
(6.16546 -0.0253829 8.05779e-18)
(39.6951 0.131929 -5.15764e-22)
(42.2024 0.0545966 -2.98237e-19)
(42.2292 0.47759 7.70129e-20)
(42.2627 0.457464 2.79379e-21)
(42.2897 0.715518 -1.99479e-19)
(42.3538 0.793293 0)
(42.4343 0.942397 0)
(42.5361 1.06943 7.58891e-21)
(42.6604 1.19778 -4.106e-19)
(42.7898 1.33483 1.45047e-19)
(42.9316 1.48561 -8.85348e-21)
(43.0895 1.62982 1.89451e-20)
(43.2742 1.76934 -1.08583e-19)
(43.4776 1.90975 1.01928e-19)
(43.7006 2.07115 -2.29766e-19)
(43.9487 2.24587 3.06881e-20)
(44.2118 2.43861 -2.48727e-20)
(44.4992 2.64981 -3.85238e-21)
(44.8204 2.88764 4.17085e-20)
(45.1596 3.15033 1.26095e-20)
(45.4966 3.42393 5.09893e-21)
(45.8267 3.73582 -9.83505e-21)
(46.1859 4.06661 0)
(46.5825 4.39003 -9.12269e-20)
(46.9423 4.67022 5.34902e-21)
(47.3347 4.9856 2.2858e-20)
(47.7757 5.36628 3.99745e-20)
(48.2207 5.8122 1.24347e-19)
(48.6852 6.27885 0)
(49.2162 6.75924 1.04239e-19)
(49.7643 7.25809 6.10252e-19)
(50.3248 7.77463 5.92809e-19)
(50.9542 8.2981 -3.3695e-19)
(51.6893 8.82312 7.32964e-19)
(52.3652 9.35472 -6.10815e-19)
(52.9268 9.86577 -3.92283e-19)
(53.5163 10.3587 0)
(54.229 10.8898 -1.11568e-18)
(54.9523 11.4229 -7.33469e-19)
(55.7012 11.8758 8.19311e-19)
(56.4504 12.2767 -1.01551e-18)
(57.2202 12.6524 1.23015e-18)
(58.0677 13.016 0)
(59.0487 13.381 8.57979e-19)
(59.567 13.5563 0)
(59.3712 13.5331 1.31225e-18)
(57.1713 12.998 -3.00294e-18)
(49.075 11.08 1.71638e-18)
(29.5442 5.7325 0)
(3.05687 -0.658146 5.47979e-19)
(39.765 0.115831 -6.20969e-23)
(42.4266 -0.0122016 -6.81228e-23)
(42.4985 0.40772 -7.93954e-20)
(42.5165 0.379741 -3.30693e-22)
(42.5453 0.664227 -2.51523e-21)
(42.6011 0.754921 -3.92519e-22)
(42.6658 0.910277 4.36916e-22)
(42.7317 1.04561 -9.05824e-22)
(42.8217 1.16518 1.30498e-19)
(42.9283 1.26906 2.03796e-21)
(43.0707 1.36159 1.03462e-21)
(43.2425 1.47014 -2.19764e-21)
(43.4349 1.58994 -7.27968e-20)
(43.6499 1.7091 7.26137e-20)
(43.878 1.82994 7.14231e-20)
(44.1197 1.96763 -3.09718e-20)
(44.3858 2.11404 2.40986e-20)
(44.6768 2.28183 2.07641e-22)
(44.9997 2.46055 -2.45277e-22)
(45.3623 2.67404 0)
(45.7357 2.90556 -1.65333e-21)
(46.1201 3.1558 -1.4023e-21)
(46.526 3.43008 1.56754e-21)
(46.9538 3.77544 0)
(47.4717 4.21498 0)
(47.9723 4.65646 1.37029e-19)
(48.4668 5.08017 0)
(49.001 5.48307 -1.24515e-19)
(49.5601 5.90973 0)
(50.098 6.35848 7.16173e-21)
(50.6426 6.81716 -2.80616e-19)
(51.2179 7.27283 2.05251e-20)
(51.7713 7.73377 -4.42351e-19)
(52.244 8.20653 4.05077e-20)
(52.7961 8.67401 2.75613e-19)
(53.5207 9.14921 4.41536e-19)
(54.2787 9.63251 -1.58016e-20)
(54.9615 10.0523 0)
(55.6673 10.4163 -1.15786e-20)
(56.357 10.7994 1.39327e-20)
(57.0752 11.1773 0)
(57.8396 11.5194 -1.99355e-20)
(58.6258 11.815 -9.52927e-20)
(59.3892 12.1015 -7.31026e-19)
(59.5235 12.1709 -1.56685e-20)
(58.7808 12.0014 0)
(54.8496 11.1943 0)
(44.001 8.6935 2.38407e-19)
(21.659 3.01595 -2.35494e-19)
(0.648793 -0.46135 5.39922e-19)
(39.842 0.112769 -1.20502e-19)
(42.6192 0.0456459 -1.32415e-19)
(42.6437 0.462227 -7.29273e-20)
(42.6539 0.44623 -8.26085e-20)
(42.6673 0.704634 -8.40002e-20)
(42.7069 0.757021 9.45485e-20)
(42.7681 0.883835 0)
(42.8555 0.967627 0)
(42.9572 1.06152 -6.03928e-20)
(43.0767 1.15803 -2.03771e-21)
(43.2094 1.24482 6.11542e-20)
(43.3778 1.31426 4.36777e-21)
(43.5731 1.38754 6.02244e-20)
(43.7987 1.47885 -5.57012e-20)
(44.0641 1.5751 -5.42064e-20)
(44.3541 1.6856 0)
(44.659 1.81596 0)
(45.002 1.96661 -2.0761e-22)
(45.3689 2.14063 2.4524e-22)
(45.766 2.32984 -3.95153e-20)
(46.1727 2.5483 1.65306e-21)
(46.5675 2.81268 0)
(47.002 3.08403 0)
(47.4795 3.34287 -2.74105e-20)
(47.8966 3.56481 -1.47804e-19)
(48.3675 3.83171 4.62428e-20)
(48.8683 4.1679 0)
(49.3698 4.56121 -1.55812e-19)
(49.8837 4.97346 0)
(50.4558 5.392 -7.16018e-21)
(51.0596 5.82128 0)
(51.6523 6.27886 0)
(52.2836 6.74782 1.21611e-19)
(53.0359 7.20772 1.47036e-19)
(53.7643 7.6679 0)
(54.337 8.11066 0)
(54.888 8.51691 1.57948e-20)
(55.5586 8.95855 0)
(56.2293 9.42461 1.15722e-20)
(56.9074 9.81352 -4.68337e-19)
(57.575 10.1293 5.56746e-19)
(58.2539 10.4227 5.94785e-20)
(59.0896 10.7767 4.20334e-20)
(59.4575 10.9241 -8.24426e-19)
(59.3394 10.9145 -5.38665e-19)
(57.4857 10.6595 3.05815e-18)
(51.5503 9.56139 -1.3935e-18)
(36.9725 6.66272 -1.64589e-18)
(10.5411 0.99091 1.35458e-18)
(-1.31477 0.0729805 0)
(39.959 0.156042 1.19973e-19)
(42.8974 0.0205555 -1.21943e-19)
(42.9266 0.427111 7.17919e-20)
(42.8961 0.388303 -7.70957e-20)
(42.8936 0.659815 8.96391e-20)
(42.9123 0.726964 -9.76138e-20)
(42.9433 0.860114 -6.4341e-21)
(42.9802 0.955645 7.16376e-21)
(43.0565 1.0205 5.31122e-20)
(43.1433 1.06463 8.06748e-21)
(43.2795 1.11621 -6.50256e-20)
(43.4478 1.16226 -1.2889e-19)
(43.6498 1.1988 6.07441e-20)
(43.8636 1.23411 5.34928e-20)
(44.1031 1.28452 1.56914e-19)
(44.3825 1.33603 -3.26412e-21)
(44.6913 1.40146 3.64353e-21)
(45.0369 1.49088 1.16159e-20)
(45.4251 1.598 7.80527e-21)
(45.8387 1.74561 3.07508e-20)
(46.2845 1.89553 0)
(46.7383 2.07625 0)
(47.2087 2.29773 0)
(47.701 2.59289 0)
(48.2932 2.97847 1.41537e-19)
(48.8568 3.36886 -4.08171e-19)
(49.4224 3.73648 0)
(50.0169 4.0932 4.90978e-19)
(50.6346 4.4671 0)
(51.2267 4.86817 0)
(51.7964 5.28962 -6.57401e-19)
(52.3974 5.69908 4.1655e-19)
(52.9965 6.10084 -9.76924e-19)
(53.4869 6.51864 2.80577e-19)
(53.9925 6.93682 0)
(54.6795 7.35688 0)
(55.4346 7.80028 5.52788e-19)
(56.0893 8.18292 -1.91076e-18)
(56.7379 8.48278 0)
(57.3597 8.79245 -1.41006e-18)
(57.9985 9.12548 2.17167e-18)
(58.7233 9.46951 -2.48465e-18)
(59.3422 9.73341 1.34649e-18)
(59.4189 9.81838 -1.70748e-18)
(58.6167 9.84009 4.63527e-18)
(55.3757 9.36511 -4.13535e-18)
(46.2674 7.85108 2.75865e-18)
(27.515 4.32548 -6.13871e-18)
(4.11457 0.342355 7.30771e-18)
(-2.34832 0.415687 -4.72019e-18)
(40.1089 0.131635 2.21206e-19)
(43.068 0.107114 8.03496e-21)
(43.0856 0.53104 0)
(43.0313 0.50527 1.58206e-19)
(42.9995 0.742533 3.5691e-19)
(42.9977 0.770009 -1.20058e-20)
(43.0157 0.865255 0)
(43.0544 0.913866 0)
(43.1156 0.959741 1.44837e-20)
(43.208 0.982208 -1.61346e-20)
(43.318 0.984834 2.61857e-19)
(43.4632 0.989761 -1.34312e-19)
(43.6645 0.9913 -1.24507e-19)
(43.9126 0.985306 1.16554e-19)
(44.1907 0.989379 -9.73413e-20)
(44.4991 1.01738 -5.57062e-21)
(44.8407 1.05679 3.27256e-20)
(45.2176 1.12205 -4.36864e-20)
(45.64 1.20167 0)
(46.0966 1.31356 1.0725e-19)
(46.5596 1.47033 1.74248e-19)
(47.0199 1.65633 0)
(47.5273 1.85435 -3.66785e-19)
(48.0848 2.04983 0)
(48.5748 2.21934 0)
(49.1078 2.4327 4.06943e-19)
(49.6707 2.72389 2.66975e-19)
(50.2345 3.07064 6.99315e-19)
(50.7935 3.44517 0)
(51.3953 3.82423 0)
(52.0416 4.20112 3.01214e-19)
(52.6697 4.61008 3.95426e-19)
(53.2957 5.04865 1.56071e-18)
(54.0419 5.47766 5.15274e-20)
(54.8165 5.90001 5.91959e-20)
(55.4195 6.31367 -1.80989e-18)
(55.9362 6.67858 -7.68604e-20)
(56.556 7.06902 2.54345e-18)
(57.1733 7.51485 1.56137e-18)
(57.7877 7.91372 9.13395e-19)
(58.4096 8.24071 2.21778e-18)
(59.1187 8.58581 1.24118e-19)
(59.3554 8.78587 -2.75908e-18)
(59.106 8.89774 -1.74657e-18)
(57.4456 8.79623 -5.09685e-18)
(51.7924 8.11515 5.8234e-18)
(38.9487 6.06118 -2.62342e-18)
(15.3974 1.98533 0)
(0.00249425 0.355111 0)
(-3.02449 0.456181 9.26021e-19)
(40.2357 0.125525 -6.39278e-19)
(43.3583 0.0708868 -2.30887e-19)
(43.36 0.480156 2.7134e-19)
(43.2902 0.481393 -9.64299e-21)
(43.2298 0.759975 -6.8932e-19)
(43.185 0.800757 1.19319e-20)
(43.1545 0.908754 0)
(43.1361 0.949854 4.62737e-19)
(43.1533 0.966583 1.4513e-20)
(43.1962 0.965961 -1.02983e-21)
(43.2924 0.918192 -5.5267e-19)
(43.4292 0.873364 2.46899e-19)
(43.5899 0.824029 2.66134e-21)
(43.7963 0.772269 -9.98695e-20)
(44.0529 0.705042 0)
(44.3553 0.647299 0)
(44.7004 0.605414 -2.67749e-20)
(45.0907 0.589631 3.23793e-20)
(45.5186 0.608102 0)
(45.9969 0.642886 -1.06914e-19)
(46.517 0.708609 -1.73671e-19)
(47.0477 0.814767 -7.57254e-20)
(47.5791 0.970753 6.79279e-20)
(48.1469 1.19951 3.81196e-19)
(48.802 1.52299 1.57263e-19)
(49.4461 1.8658 2.39022e-19)
(50.0781 2.19358 -8.22513e-19)
(50.7253 2.51248 -7.04771e-19)
(51.4003 2.84696 9.22816e-19)
(52.0514 3.21061 -1.14693e-18)
(52.6578 3.61003 0)
(53.2761 4.00385 0)
(53.9181 4.37506 6.44019e-20)
(54.4455 4.76185 -1.2166e-18)
(54.914 5.15785 1.54604e-18)
(55.5444 5.55223 2.81126e-18)
(56.2953 5.99178 -1.06521e-18)
(56.9426 6.39438 -2.64839e-18)
(57.5545 6.6914 -3.11876e-18)
(58.1412 6.97275 -1.89836e-18)
(58.8184 7.35438 -1.10357e-19)
(59.3077 7.7238 2.26885e-18)
(59.3463 7.83425 0)
(58.5581 7.96976 1.72742e-18)
(55.0957 7.78264 1.99595e-18)
(46.4502 6.65041 2.25865e-18)
(28.6918 4.04398 7.63289e-18)
(5.36608 0.769475 -2.84701e-18)
(-2.73016 0.720937 0)
(-3.15823 0.477475 0)
(40.4752 0.172747 2.51366e-20)
(43.6504 0.209205 4.76607e-19)
(43.5808 0.643079 -2.79388e-19)
(43.4339 0.631256 5.96948e-19)
(43.339 0.884126 3.64146e-19)
(43.2599 0.919149 3.46942e-23)
(43.2028 0.999779 -1.33156e-20)
(43.1634 1.01785 -4.31569e-19)
(43.1442 1.00459 -3.12647e-20)
(43.1555 0.978138 -3.19898e-20)
(43.2126 0.896091 2.75712e-19)
(43.3361 0.78402 3.74122e-20)
(43.5018 0.665107 2.9886e-19)
(43.7174 0.554083 2.8234e-19)
(43.9839 0.454628 -2.31896e-20)
(44.3039 0.359033 2.58675e-20)
(44.6676 0.280736 0)
(45.0869 0.221412 -1.21019e-20)
(45.5597 0.188167 0)
(46.0587 0.206038 0)
(46.5842 0.258587 0)
(47.1082 0.35079 -1.54943e-19)
(47.7081 0.468893 5.5342e-19)
(48.3337 0.598277 -5.19222e-19)
(48.9122 0.712156 0)
(49.5086 0.875019 -2.469e-19)
(50.1508 1.11498 -9.15301e-19)
(50.7938 1.42281 -1.50947e-18)
(51.4083 1.76851 -1.40996e-18)
(52.0464 2.1302 1.12619e-18)
(52.7309 2.48308 -1.43047e-18)
(53.4067 2.85859 8.36794e-19)
(54.0402 3.27926 2.14988e-18)
(54.7715 3.70077 0)
(55.5909 4.11537 1.59895e-18)
(56.2608 4.534 -3.76637e-18)
(56.7744 4.89286 -8.85387e-20)
(57.3576 5.25366 2.61998e-18)
(57.9487 5.69761 1.55344e-18)
(58.5718 6.17146 0)
(59.2185 6.63855 2.03865e-18)
(59.441 6.79842 -2.44096e-18)
(59.1267 7.03125 5.85042e-18)
(57.0824 7.17022 0)
(51.3983 6.64491 -7.84414e-18)
(38.2143 5.13826 2.16641e-18)
(15.1988 2.01667 -2.49079e-18)
(0.00908682 0.888711 -2.77694e-18)
(-4.02767 1.05299 6.1286e-18)
(-2.96908 0.637701 8.84714e-21)
(40.7478 0.185773 3.93629e-19)
(43.9662 0.224046 -4.284e-19)
(43.9239 0.666407 4.99365e-19)
(43.7788 0.690766 -1.17493e-18)
(43.6324 0.98365 6.94541e-19)
(43.495 1.03322 -4.82235e-20)
(43.3616 1.1469 4.69222e-19)
(43.241 1.16872 0)
(43.1593 1.13133 5.49544e-19)
(43.1029 1.0523 -6.36831e-19)
(43.0959 0.955376 2.52632e-21)
(43.1535 0.800836 4.09455e-20)
(43.2723 0.620427 -2.97854e-19)
(43.439 0.417459 4.60017e-20)
(43.6704 0.214524 -2.69172e-19)
(43.9694 0.0232053 -3.16593e-20)
(44.3289 -0.157531 0)
(44.7472 -0.298128 1.20478e-20)
(45.2285 -0.417719 1.35724e-19)
(45.7745 -0.507389 0)
(46.3688 -0.551787 0)
(46.9791 -0.549327 0)