/*--------------------------------*- C++ -*----------------------------------*\
| =========                 |                                                 |
| \\      /  F ield         | OpenFOAM: The Open Source CFD Toolbox           |
|  \\    /   O peration     | Version:  v1912                                 |
|   \\  /    A nd           | Website:  www.openfoam.com                      |
|    \\/     M anipulation  |                                                 |
\*---------------------------------------------------------------------------*/
FoamFile
{
    version     2.0;
    format      ascii;
    class       volScalarField;
    location    "0.25";
    object      p;
}
// * * * * * * * * * * * * * * * * * * * * * * * * * * * * * * * * * * * * * //

dimensions      [0 2 -2 0 0 0 0];


internalField   nonuniform List<scalar> 
6600
(
81.8709
77.0363
74.691
73.4033
72.9501
72.9852
73.4118
74.2425
75.5949
77.5234
80.0172
83.0279
86.6109
90.7814
95.5089
100.805
106.672
113.109
120.118
127.675
135.736
144.242
153.093
162.42
172.139
181.962
191.855
201.828
211.655
221.209
230.382
239.045
246.967
253.862
259.534
263.706
266.023
266.164
263.758
258.393
249.607
237.143
220.133
198.109
170.485
136.539
96.1019
48.2287
-8.00888
-63.6233
78.5062
73.4162
71.6573
70.0791
69.27
68.9607
69.0771
69.6887
70.897
72.6163
74.8756
77.7149
81.083
85.0238
89.4947
94.5187
100.087
106.187
112.816
119.951
127.556
135.615
144.032
152.58
161.387
170.394
179.349
188.244
196.993
205.372
213.224
220.403
226.715
231.854
235.57
237.647
237.751
235.518
230.582
222.539
210.942
195.316
175.096
149.737
118.667
81.2026
37.1947
-13.6992
-71.5839
-126.764
73.802
68.359
67.3864
65.6158
64.6134
64.1453
64.1113
64.6349
65.7449
67.3911
69.5858
72.3205
75.6026
79.4409
83.7983
88.6776
94.0713
99.9584
106.32
113.13
120.347
127.889
135.719
143.759
151.884
160.009
168.04
175.88
183.411
190.451
196.834
202.395
206.904
210.096
211.738
211.547
209.214
204.426
196.799
185.933
171.385
152.658
129.336
100.943
66.9589
26.7781
-19.7841
-72.0564
-128.9
-180.416
68.1886
62.4374
61.9613
59.9055
58.8416
58.2618
58.219
58.7563
59.8658
61.5128
63.7077
66.4249
69.6924
73.4889
77.7864
82.5796
87.8453
93.5586
99.6851
106.176
113.004
120.164
127.506
134.804
142.123
149.443
156.557
163.299
169.596
175.284
180.152
184.01
186.661
187.85
187.313
184.803
180.028
172.661
162.345
148.706
131.348
109.869
83.9299
53.1393
17.0937
-24.6725
-72.1972
-124.243
-178.472
-224.156
61.7629
55.5608
55.3852
53.0218
51.9947
51.462
51.4334
51.9112
53.0265
54.7227
56.8968
59.5978
62.8314
66.5624
70.7711
75.4445
80.5533
86.0626
91.9277
98.0885
104.477
111.015
117.731
124.553
131.199
137.596
143.713
149.399
154.471
158.765
162.114
164.318
165.148
164.375
161.777
157.063
149.957
140.192
127.438
111.366
91.6727
68.068
40.2985
8.07264
-28.909
-70.9132
-117.9
-168.4
-218.637
-256.984
54.6362
47.7971
47.5554
45.0026
44.0457
43.5249
43.4872
43.9978
45.0383
46.6536
48.7984
51.4472
54.5777
58.178
62.2293
66.7096
71.5847
76.8101
82.3369
88.1026
94.0553
100.184
106.277
112.205
118.058
123.694
128.87
133.456
137.341
140.335
142.238
142.861
142.001
139.433
134.913
128.228
119.123
107.335
92.6194
74.7304
53.4501
28.5884
-0.0180537
-32.5782
-69.3248
-110.454
-155.545
-203.234
-248.758
-278.683
45.9635
38.9728
38.5294
35.7986
34.922
34.3533
34.2977
34.7509
35.7398
37.2585
39.2875
41.7841
44.7335
48.1258
51.9312
56.1256
60.673
65.5296
70.648
75.9631
81.389
86.827
92.3602
97.8266
102.909
107.58
111.783
115.344
118.072
119.796
120.352
119.561
117.195
113.05
106.957
98.6768
88.0015
74.7605
58.7564
39.8144
17.8011
-7.39193
-35.8444
-67.656
-102.995
-142.164
-184.767
-228.82
-268.846
-290.349
35.8239
28.8592
28.1585
25.31
24.3803
23.7799
23.7012
24.1318
24.9964
26.3402
28.1674
30.4344
33.125
36.2259
39.7073
43.5413
47.6914
52.1181
56.7679
61.5856
66.5315
71.5524
76.3406
80.8711
85.2165
89.1946
92.5301
95.0787
96.7483
97.3774
96.7664
94.7351
91.1306
85.7717
78.4593
69.059
57.4113
43.3588
26.7851
7.58997
-14.2995
-38.9228
-66.2984
-96.4851
-129.573
-165.742
-205.194
-245.358
-280.174
-294.962
23.573
17.2088
16.3738
13.4732
12.5332
11.8372
11.592
11.9011
12.6752
13.8452
15.3966
17.3458
19.701
22.426
25.5067
28.9122
32.6087
36.5551
40.7046
44.9861
49.294
53.5879
57.9367
62.0688
65.7178
68.7979
71.2711
73.0061
73.8011
73.4781
71.9167
68.9836
64.4844
58.27
50.2506
40.2709
28.2164
14.017
-2.40813
-21.1179
-42.1308
-65.4354
-90.9955
-118.783
-148.909
-181.703
-216.909
-252.708
-283.527
-295.05
9.59631
3.84662
3.06712
0.150351
-0.748027
-1.60519
-1.91979
-1.83717
-1.35842
-0.477387
0.770597
2.38378
4.32351
6.6188
9.25086
12.1865
15.4003
18.8534
22.5027
26.3016
30.2163
34.0728
37.6537
40.9538
43.9908
46.6156
48.5323
49.5698
49.6667
48.7217
46.5545
43.0106
38.006
31.4294
23.1424
13.0917
1.21943
-12.5364
-28.2082
-45.8026
-65.3008
-86.6556
-109.802
-134.683
-161.215
-189.958
-219.989
-249.881
-275.047
-286.293
-5.91103
-11.2121
-11.8544
-14.5481
-15.4411
-16.4291
-17.0072
-17.1899
-17.0033
-16.5057
-15.6619
-14.5043
-13.0263
-11.2025
-9.07848
-6.64992
-3.9388
-0.982593
2.16277
5.43705
8.75557
12.1001
15.4208
18.534
21.1529
23.1441
24.5274
25.2276
25.0164
23.7038
21.2301
17.5222
12.43
5.86312
-2.18974
-11.8054
-23.0282
-35.8488
-50.2539
-66.2278
-83.7218
-102.659
-122.925
-144.34
-167.137
-190.943
-214.593
-235.744
-250.067
-259.705
-22.8126
-27.5733
-28.1169
-30.6351
-31.62
-32.761
-33.6015
-34.1103
-34.378
-34.3548
-34.0305
-33.3922
-32.4233
-31.1457
-29.5519
-27.6335
-25.4194
-22.9402
-20.2235
-17.3172
-14.2671
-11.2179
-8.37355
-5.80449
-3.43957
-1.40177
-0.023949
0.505932
0.179519
-1.0667
-3.40026
-6.95348
-11.7502
-17.8313
-25.2843
-34.1016
-44.256
-55.7349
-68.5102
-82.5145
-97.6592
-113.827
-130.83
-148.613
-166.964
-185.084
-201.737
-214.096
-218.49
-223.17
-41.0921
-45.3139
-45.6603
-48.0028
-49.051
-50.5006
-51.653
-52.5925
-53.3177
-53.8001
-54.0628
-54.0746
-53.7512
-53.0893
-52.0696
-50.7055
-49.0089
-46.9911
-44.6877
-42.1553
-39.4817
-36.7059
-33.8394
-31.0176
-28.5708
-26.6714
-25.2519
-24.3701
-24.2895
-25.1859
-27.097
-30.051
-34.1582
-39.4739
-45.9522
-53.6006
-62.4131
-72.3197
-83.2234
-95.0398
-107.662
-120.922
-134.601
-148.683
-162.406
-174.863
-185.018
-191.631
-195.748
-197.185
-60.4594
-63.7567
-64.0899
-66.4206
-67.6131
-69.4129
-70.9775
-72.4457
-73.7974
-74.9995
-75.9625
-76.6475
-77.0298
-77.0407
-76.6615
-75.8838
-74.6926
-73.097
-71.1226
-68.7952
-66.1483
-63.2985
-60.4826
-57.7884
-55.1012
-52.5333
-50.4496
-49.0719
-48.3889
-48.4795
-49.4848
-51.5515
-54.6882
-58.8749
-64.1545
-70.4871
-77.7725
-85.9292
-94.8841
-104.515
-114.671
-125.136
-135.725
-146.154
-155.944
-164.286
-170.284
-173.297
-177.624
-178.414
-80.6237
-82.8498
-83.1122
-85.3859
-86.8503
-89.0497
-91.1987
-93.3209
-95.3905
-97.3504
-99.1266
-100.696
-101.926
-102.734
-103.107
-102.995
-102.366
-101.226
-99.5807
-97.466
-94.9384
-92.0653
-88.8495
-85.3828
-81.991
-78.9216
-76.1209
-73.6486
-71.7961
-70.7727
-70.6709
-71.4927
-73.3127
-76.204
-80.0948
-84.917
-90.6185
-97.0974
-104.199
-111.784
-119.716
-127.711
-135.664
-143.375
-150.241
-155.465
-158.525
-161.595
-163.256
-164.406
-100.516
-101.728
-102.123
-104.543
-106.371
-109.147
-111.967
-114.896
-117.914
-120.898
-123.667
-126.166
-128.375
-130.164
-131.403
-132.037
-132.034
-131.364
-130.011
-127.973
-125.263
-121.96
-118.302
-114.457
-110.324
-105.986
-101.78
-98.0335
-94.8455
-92.3072
-90.5611
-89.8256
-90.177
-91.5457
-93.9371
-97.3068
-101.513
-106.405
-111.878
-117.838
-123.812
-129.678
-135.619
-141.204
-145.955
-149.297
-151.223
-153.192
-154.406
-155.142
-119.683
-119.898
-120.487
-123.108
-125.428
-128.96
-132.657
-136.591
-140.677
-144.79
-148.797
-152.507
-155.861
-158.816
-161.157
-162.753
-163.543
-163.478
-162.512
-160.652
-157.908
-154.333
-150.011
-144.939
-139.419
-133.827
-128.239
-122.703
-117.515
-113.021
-109.472
-106.93
-105.45
-105.165
-106.03
-107.914
-110.708
-114.327
-118.709
-123.187
-127.403
-131.798
-136.13
-139.907
-142.796
-144.791
-147.005
-147.918
-148.817
-149.137
-136.86
-136.506
-137.453
-140.533
-143.556
-148.002
-152.717
-157.884
-163.339
-168.924
-174.45
-179.675
-184.462
-188.73
-192.361
-195.12
-196.895
-197.578
-197.122
-195.47
-192.554
-188.373
-183.193
-177.282
-170.628
-163.253
-155.483
-147.773
-140.445
-133.683
-127.692
-122.804
-119.309
-117.179
-116.381
-116.881
-118.58
-121.369
-124.687
-127.847
-131.249
-134.73
-137.49
-139.293
-140.45
-141.937
-143.183
-144.218
-145.015
-145.178
-151.696
-150.524
-152.372
-156.018
-159.911
-165.5
-171.465
-178.051
-185.071
-192.283
-199.554
-206.661
-213.273
-219.187
-224.393
-228.702
-231.808
-233.567
-233.879
-232.658
-229.877
-225.541
-219.674
-212.317
-203.692
-194.355
-184.531
-174.355
-164.149
-154.364
-145.55
-138.065
-132.034
-127.7
-125.153
-124.292
-124.974
-126.936
-129.494
-132.545
-135.856
-138.332
-139.301
-139.468
-139.481
-139.976
-140.951
-142.05
-142.843
-143.057
-162.797
-162.061
-164.703
-169.066
-174.025
-180.919
-188.282
-196.516
-205.332
-214.532
-223.85
-233.063
-241.939
-250.116
-257.345
-263.493
-268.263
-271.438
-272.861
-272.368
-269.838
-265.162
-258.462
-250.081
-240.157
-228.655
-215.971
-202.663
-189.265
-176.252
-163.964
-152.869
-143.681
-136.724
-132.053
-129.658
-129.358
-130.94
-133.819
-137.501
-140.691
-141.997
-141.923
-141.045
-140.409
-140.237
-140.659
-141.399
-141.946
-142.237
-169.848
-170.533
-173.96
-179.176
-185.323
-193.561
-202.418
-212.494
-223.321
-234.607
-246.246
-257.982
-269.451
-280.3
-290.123
-298.629
-305.643
-310.86
-313.935
-314.681
-312.945
-308.61
-301.659
-292.135
-280.138
-266.197
-250.86
-234.402
-217.214
-199.83
-183.089
-167.915
-154.771
-144.241
-136.824
-132.498
-131.427
-133.096
-136.731
-141.141
-144.523
-145.83
-145.498
-144.513
-143.445
-142.404
-141.58
-141.045
-140.891
-141.088
-172.06
-174.967
-179.395
-185.893
-193.275
-203.116
-213.51
-225.459
-238.433
-252.176
-266.383
-280.847
-295.305
-309.307
-322.341
-333.979
-343.891
-351.689
-357.02
-359.608
-359.184
-355.472
-348.279
-337.99
-324.869
-308.851
-290.328
-269.925
-248.338
-226.402
-204.804
-184.167
-165.611
-150.349
-138.999
-131.954
-129.457
-131.072
-136.062
-142.171
-146.651
-148.863
-148.952
-147.825
-145.859
-143.613
-141.457
-139.763
-138.928
-138.696
-169.987
-175.336
-180.862
-188.818
-197.58
-209.001
-220.915
-234.868
-249.992
-266.143
-283.199
-300.758
-318.491
-336.027
-352.827
-368.284
-381.847
-393.009
-401.429
-406.693
-408.435
-406.301
-400.077
-389.659
-375.12
-356.74
-335.313
-311.145
-285.004
-257.498
-229.46
-202.284
-177.337
-155.669
-138.616
-126.996
-121.751
-123.816
-131.073
-139.183
-145.238
-148.664
-149.524
-148.401
-145.845
-142.753
-139.753
-137.222
-135.65
-134.805
-163.743
-172.066
-178.424
-187.851
-198.172
-210.856
-224.444
-240.348
-257.633
-276.311
-296.166
-316.958
-338.335
-359.822
-380.853
-400.748
-418.803
-434.369
-446.861
-455.754
-460.593
-460.822
-456.054
-446.014
-431.059
-411.591
-387.324
-359.171
-327.746
-294.072
-259.478
-224.819
-191.444
-161.333
-136.182
-117.999
-109.576
-111.412
-120.228
-130.841
-139.651
-144.548
-146.971
-147.079
-145.517
-142.683
-139.213
-135.977
-133.738
-132.183
-154.969
-165.381
-172.461
-183.163
-194.775
-208.539
-223.874
-241.573
-260.726
-281.897
-304.733
-328.828
-353.916
-379.599
-405.289
-430.222
-453.549
-474.434
-492
-505.653
-514.618
-518.575
-516.803
-508.713
-494.148
-473.365
-446.714
-414.769
-378.528
-338.953
-296.756
-252.823
-209.871
-169.873
-134.594
-108.067
-94.2386
-94.7683
-104.635
-118.453
-130.941
-141.261
-147.771
-150.306
-149.866
-147.133
-143.144
-139.092
-136.202
-134.279
-143.801
-156.201
-163.734
-175.544
-187.837
-202.585
-219.285
-238.304
-259.469
-282.888
-308.363
-335.76
-364.689
-394.751
-425.413
-455.878
-485.184
-512.284
-536.173
-555.795
-570.388
-579.286
-581.302
-575.903
-563.063
-542.698
-515.103
-480.624
-439.562
-392.808
-342.136
-289.954
-236.997
-184.769
-136.607
-100.66
-82.3517
-79.907
-89.423
-107.435
-125.72
-140.976
-151.392
-156.62
-157.58
-155.295
-150.87
-146.059
-142.606
-140.673
-132.45
-145.015
-153.027
-165.262
-178
-193.32
-210.769
-230.942
-253.496
-278.891
-306.926
-337.398
-370.043
-404.508
-440.292
-476.613
-512.408
-546.441
-577.534
-604.513
-626.189
-641.307
-649.202
-648.848
-639.213
-620.155
-592.054
-555.29
-510.236
-458.317
-400.813
-339.224
-273.856
-208.05
-151.772
-108.013
-83.5464
-75.2952
-81.3498
-99.2816
-121.841
-140.413
-153.205
-159.902
-161.956
-160.151
-156.42
-151.762
-149.008
-147.959
-121.536
-132.697
-141.261
-153.533
-166.313
-181.815
-199.487
-220.16
-243.809
-270.572
-300.512
-333.658
-369.725
-408.478
-449.427
-491.828
-534.51
-576.084
-615.191
-650.619
-680.788
-704.172
-719.647
-725.31
-720.029
-704.079
-677.558
-640.902
-594.829
-538.846
-474.004
-400.688
-322.861
-247.373
-181.712
-134.483
-103.718
-91.9623
-93.2503
-104.485
-122.056
-138.514
-150.618
-157.313
-159.289
-158.369
-155.847
-153.122
-151.527
-151.309
-116.242
-119.734
-129.172
-140.77
-153.455
-168.793
-186.297
-207.001
-230.92
-258.548
-289.791
-324.831
-363.684
-406.284
-452.343
-500.98
-550.804
-600.335
-648.029
-692.882
-732.98
-766.015
-790.611
-804.95
-807.124
-796.731
-773.546
-737.604
-689.704
-629.111
-554.381
-471.112
-382.813
-303.488
-232.403
-178.627
-142.976
-124.137
-117.942
-121.41
-130.985
-142.001
-150.736
-155.43
-156.228
-154.626
-152.678
-151.477
-151.167
-151.813
-129.305
-109.718
-117.854
-128.491
-141.035
-155.98
-172.985
-193.216
-217.06
-244.821
-276.689
-313
-353.953
-399.557
-450.074
-504.372
-560.653
-618.186
-675.164
-730.147
-780.785
-824.233
-859.946
-884.681
-894.723
-892.235
-875.793
-841.959
-792.3
-730.788
-646.971
-555.357
-466.263
-379.242
-302.986
-243.249
-199.378
-169.854
-153.783
-147.612
-148.094
-151.297
-154.647
-155.974
-154.846
-152.533
-150.718
-150.256
-150.75
-151.724
30.8746
25.8324
23.4357
21.9555
21.2466
20.959
20.922
21.1102
21.658
22.5923
23.9287
25.6136
27.67
30.0975
32.8825
36.0376
39.5596
43.4563
47.7598
52.4485
57.4737
62.7642
68.4141
74.4065
80.5726
86.8185
93.112
99.3859
105.524
111.391
116.827
121.676
125.766
128.897
130.886
131.225
129.628
125.75
119.221
109.619
96.4539
79.1776
57.2152
29.8517
-3.22911
-43.4226
-90.6083
-145.396
-210.654
-276.302
27.1503
21.563
19.597
17.5903
16.3568
15.5807
15.0962
14.9441
15.1931
15.7829
16.7075
18.0305
19.678
21.6693
24.0046
26.6838
29.707
33.0701
36.7938
40.8653
45.2771
49.9121
54.6132
59.5203
64.7404
70.0147
75.155
80.1327
84.905
89.2961
93.1236
96.2012
98.333
99.2893
99.073
96.893
92.6201
85.8775
76.28
63.3771
46.6552
25.5587
-0.479153
-32.1604
-70.0218
-115
-167.161
-226.682
-295.241
-362.576
21.7351
15.5068
14.2888
11.8684
10.312
9.20756
8.35372
7.94668
7.89032
8.18794
8.8262
9.79683
11.0943
12.7312
14.6863
16.9591
19.5465
22.4327
25.623
29.0966
32.8524
36.7956
40.7662
44.8432
49.011
53.1481
57.1304
60.86
64.1988
66.9809
69.0516
70.2435
70.3233
69.028
66.1472
61.3364
54.2364
44.4653
31.6344
15.2918
-5.0703
-29.9895
-59.9983
-95.7405
-137.795
-186.822
-242.969
-305.685
-374.681
-439.701
15.2049
8.27491
7.60296
4.71821
2.98433
1.55696
0.533683
-0.122539
-0.410551
-0.355476
0.0367705
0.726871
1.73876
3.05818
4.66469
6.56433
8.73275
11.1535
13.8124
16.6751
19.7437
23.014
26.2771
29.4467
32.5545
35.5623
38.3091
40.646
42.4652
43.6136
43.9041
43.1239
41.0367
37.4072
31.9426
24.3686
14.3662
1.53428
-14.5279
-34.2544
-58.1176
-86.5875
-120.125
-159.268
-204.531
-256.487
-315.204
-379.287
-447.044
-507.593
7.42982
0.126216
-0.516698
-3.73451
-5.55457
-7.11562
-8.32434
-9.22285
-9.74919
-9.89169
-9.76237
-9.35251
-8.6363
-7.65379
-6.409
-4.92406
-3.21085
-1.2968
0.78339
2.9856
5.2911
7.68528
10.1015
12.4171
14.5162
16.3392
17.8018
18.7741
19.0773
18.5431
17.0014
14.2489
10.0353
4.10424
-3.83208
-14.0666
-26.8748
-42.6242
-61.6952
-84.4775
-111.376
-142.787
-179.085
-220.681
-267.959
-321.382
-380.909
-444.884
-510.287
-564.787
-1.15196
-9.13924
-9.94498
-13.4821
-15.3441
-17.0126
-18.4436
-19.5072
-20.255
-20.7141
-20.8555
-20.7319
-20.388
-19.8009
-18.9989
-17.999
-16.8199
-15.4961
-14.0603
-12.5684
-11.043
-9.48356
-7.9921
-6.69876
-5.67796
-5.02191
-4.84912
-5.30531
-6.5278
-8.68825
-11.986
-16.643
-22.9024
-30.9997
-41.2098
-53.8357
-69.1448
-87.4488
-109.054
-134.3
-163.52
-197.005
-235.032
-277.91
-325.932
-379.422
-438.377
-501.04
-562.811
-609.782
-11.4562
-19.6593
-20.5679
-24.3956
-26.3015
-28.1654
-29.738
-31.042
-32.0665
-32.8036
-33.3144
-33.6148
-33.6972
-33.6049
-33.3452
-32.931
-32.3857
-31.7388
-31.0276
-30.3095
-29.6185
-28.981
-28.4872
-28.2331
-28.2925
-28.8004
-29.8944
-31.7029
-34.3899
-38.1356
-43.1217
-49.554
-57.6682
-67.701
-79.9055
-94.5523
-111.882
-132.155
-155.633
-182.574
-213.214
-247.774
-286.445
-329.448
-377.035
-429.505
-486.525
-546.381
-603.505
-641.635
-23.2207
-31.3688
-32.5191
-36.5196
-38.5716
-40.627
-42.3924
-43.8849
-45.2319
-46.3837
-47.3496
-48.1362
-48.7811
-49.2805
-49.6565
-49.9343
-50.1153
-50.2348
-50.3237
-50.4351
-50.6208
-50.9065
-51.3857
-52.1764
-53.3527
-55.023
-57.3413
-60.4715
-64.5406
-69.7136
-76.1939
-84.1844
-93.9018
-105.549
-119.332
-135.489
-154.249
-175.822
-200.396
-228.166
-259.305
-293.946
-332.205
-374.234
-420.27
-470.696
-525.137
-581.191
-632.438
-661.236
-36.9723
-44.407
-45.7238
-49.802
-51.9489
-54.2275
-56.3145
-58.1559
-59.8253
-61.4244
-62.9381
-64.3373
-65.626
-66.8267
-67.9468
-68.9944
-69.983
-70.9393
-71.8962
-72.8953
-73.9852
-75.2312
-76.737
-78.5633
-80.7814
-83.5467
-87.0116
-91.2945
-96.5681
-103.008
-110.767
-120.027
-130.972
-143.785
-158.669
-175.809
-195.365
-217.501
-242.383
-270.146
-300.891
-334.701
-371.644
-411.826
-455.432
-502.819
-553.881
-605.429
-650.202
-670.359
-52.1666
-58.773
-60.1306
-64.2799
-66.4671
-69.0576
-71.4545
-73.7258
-75.9295
-78.0824
-80.1645
-82.2305
-84.2734
-86.2599
-88.1905
-90.0937
-91.966
-93.82
-95.6881
-97.617
-99.6512
-101.814
-104.218
-106.99
-110.232
-114.025
-118.493
-123.8
-130.078
-137.478
-146.174
-156.313
-168.074
-181.614
-197.059
-214.566
-234.28
-256.321
-280.789
-307.772
-337.347
-369.547
-404.379
-441.897
-482.283
-525.883
-572.5
-619.286
-658.75
-673.136
-68.5803
-74.3739
-75.6543
-79.6633
-81.9991
-84.868
-87.6753
-90.5034
-93.2705
-96.0471
-98.8722
-101.706
-104.555
-107.386
-110.215
-113.038
-115.84
-118.632
-121.443
-124.304
-127.255
-130.367
-133.722
-137.392
-141.452
-146.057
-151.337
-157.392
-164.376
-172.437
-181.704
-192.339
-204.462
-218.186
-233.662
-251.005
-270.295
-291.606
-315.016
-340.577
-368.315
-398.234
-430.331
-464.582
-500.985
-540.126
-581.106
-621.876
-656.036
-669.362
-85.4858
-90.7915
-91.9634
-95.8559
-98.4107
-101.665
-104.946
-108.269
-111.755
-115.313
-118.923
-122.622
-126.35
-130.113
-133.897
-137.67
-141.438
-145.207
-148.973
-152.761
-156.616
-160.571
-164.695
-169.084
-173.868
-179.144
-184.992
-191.545
-198.924
-207.273
-216.733
-227.395
-239.406
-252.891
-267.911
-284.548
-302.878
-322.949
-344.784
-368.386
-393.751
-420.846
-449.602
-479.948
-512.046
-545.769
-579.686
-611.465
-635.268
-648.125
-103.187
-107.655
-108.812
-112.608
-115.364
-119.072
-122.826
-126.815
-130.995
-135.389
-139.966
-144.604
-149.326
-154.12
-158.911
-163.706
-168.494
-173.244
-177.952
-182.644
-187.339
-192.094
-196.98
-202.048
-207.342
-212.975
-219.091
-225.807
-233.24
-241.499
-250.706
-261.02
-272.523
-285.268
-299.362
-314.875
-331.828
-350.232
-370.075
-391.33
-413.937
-437.798
-462.775
-488.675
-516.111
-543.603
-569.213
-589.336
-599.296
-608.453
-120.898
-124.58
-125.692
-129.546
-132.543
-136.759
-141.127
-145.829
-150.902
-156.224
-161.746
-167.465
-173.298
-179.177
-185.07
-190.954
-196.784
-202.549
-208.23
-213.82
-219.329
-224.781
-230.211
-235.659
-241.251
-247.104
-253.274
-259.851
-266.971
-274.789
-283.419
-292.932
-303.457
-315.119
-327.946
-341.959
-357.183
-373.604
-391.19
-409.858
-429.482
-449.898
-470.839
-492.504
-514.304
-535.021
-552.98
-565.516
-570.337
-573.71
-138.189
-140.818
-142.17
-146.073
-149.484
-154.187
-159.297
-164.858
-170.807
-177.155
-183.84
-190.711
-197.732
-204.824
-211.934
-218.997
-225.969
-232.813
-239.483
-245.948
-252.219
-258.297
-264.249
-270.103
-275.863
-281.601
-287.461
-293.586
-300.084
-307.063
-314.663
-323.043
-332.306
-342.494
-353.688
-365.934
-379.211
-393.495
-408.694
-424.702
-441.365
-458.426
-475.835
-493.371
-510.233
-525.343
-536.946
-543.724
-550.629
-551.861
-154.152
-155.98
-157.543
-161.682
-165.568
-171.004
-176.868
-183.34
-190.422
-197.937
-205.822
-214.007
-222.362
-230.802
-239.245
-247.594
-255.787
-263.763
-271.462
-278.871
-285.938
-292.64
-298.968
-304.943
-310.647
-316.187
-321.618
-327.022
-332.564
-338.403
-344.687
-351.547
-359.108
-367.541
-376.914
-387.211
-398.424
-410.479
-423.322
-436.831
-450.822
-465.083
-479.411
-493.311
-506.223
-517.254
-525.047
-528.766
-531.857
-533.811
-168.092
-169.411
-171.307
-175.778
-180.203
-186.376
-193.172
-200.733
-208.947
-217.787
-227.065
-236.709
-246.578
-256.545
-266.497
-276.303
-285.842
-295.064
-303.939
-312.373
-320.258
-327.577
-334.32
-340.514
-346.176
-351.299
-355.999
-360.443
-364.76
-369.132
-373.729
-378.728
-384.369
-390.755
-397.998
-406.186
-415.263
-425.207
-435.907
-447.259
-459.084
-470.946
-482.613
-493.664
-503.469
-511.029
-515.536
-519.901
-520.642
-522.268
-179.611
-180.264
-182.827
-187.72
-192.879
-199.973
-207.698
-216.406
-225.965
-236.162
-246.906
-258.113
-269.595
-281.228
-292.862
-304.356
-315.586
-326.368
-336.612
-346.212
-355.11
-363.186
-370.414
-376.74
-382.174
-386.862
-390.845
-394.203
-397.108
-399.725
-402.324
-405.2
-408.492
-412.49
-417.416
-423.333
-430.304
-438.221
-447.044
-456.689
-466.586
-476.371
-485.976
-494.77
-501.843
-506.442
-509.737
-511.752
-512.871
-513.796
-187.762
-188.637
-191.656
-197.054
-202.952
-211.019
-219.855
-229.825
-240.728
-252.446
-264.871
-277.767
-291.069
-304.61
-318.176
-331.622
-344.768
-357.389
-369.268
-380.292
-390.327
-399.356
-407.257
-413.925
-419.418
-423.708
-426.815
-428.915
-430.195
-430.924
-431.296
-431.542
-432.158
-433.438
-435.64
-439.045
-443.69
-449.673
-457.035
-465.096
-473.297
-481.648
-489.569
-496.22
-500.81
-503.379
-505.304
-506.478
-507.507
-507.974
-192.014
-193.627
-197.362
-203.524
-210.22
-219.307
-229.199
-240.488
-252.897
-266.225
-280.36
-295.168
-310.49
-326.123
-341.869
-357.484
-372.729
-387.409
-401.252
-414.035
-425.667
-436.027
-444.916
-452.179
-457.796
-461.758
-464.221
-465.236
-464.904
-463.405
-461.148
-458.637
-456.137
-454.132
-453.148
-453.497
-455.577
-459.608
-465.252
-471.859
-479.253
-486.726
-493.04
-497.392
-499.781
-501.465
-502.135
-503.023
-503.84
-504.173
-192.012
-195.186
-199.652
-206.805
-214.257
-224.482
-235.438
-248.007
-261.91
-276.914
-292.905
-309.726
-327.197
-345.112
-363.231
-381.272
-398.956
-416.044
-432.245
-447.335
-461.08
-473.13
-483.29
-491.539
-497.781
-501.942
-503.905
-503.791
-501.825
-498.245
-493.33
-487.403
-481.168
-475.305
-470.386
-467.102
-465.726
-466.942
-470.789
-476.869
-484.297
-491.088
-495.878
-498.331
-499.637
-500.037
-500.383
-500.814
-501.277
-501.543
-187.624
-193.39
-198.479
-206.705
-215.053
-226.378
-238.227
-252.165
-267.479
-284.106
-301.966
-320.867
-340.617
-360.975
-381.691
-402.475
-422.991
-442.936
-462.002
-479.829
-495.973
-510.172
-522.315
-532.209
-539.43
-543.96
-545.927
-545.249
-541.911
-536.141
-528.25
-518.847
-508.521
-497.947
-488.18
-480.071
-474.16
-471.774
-473.608
-479.265
-486.872
-493.594
-497.872
-499.624
-499.838
-499.676
-499.32
-499.101
-499.031
-499.068
-179.964
-188.115
-193.933
-203.173
-212.551
-224.912
-237.697
-252.78
-269.416
-287.595
-307.23
-328.196
-350.289
-373.245
-396.778
-420.571
-444.266
-467.467
-489.775
-510.732
-529.916
-547.035
-561.861
-573.779
-582.664
-588.526
-591.046
-590.056
-585.751
-578.174
-567.613
-554.46
-539.322
-523.302
-507.516
-493.236
-481.366
-473.745
-472.339
-477.171
-485.374
-493.38
-498.071
-499.869
-499.679
-498.9
-497.911
-497.081
-496.593
-496.342
-168.969
-179.83
-186.153
-196.604
-206.964
-220.041
-233.718
-249.972
-267.698
-287.252
-308.56
-331.497
-355.888
-381.487
-407.97
-434.971
-462.091
-488.865
-514.846
-539.524
-562.452
-583.197
-601.213
-616.048
-627.578
-635.215
-638.746
-638.352
-633.72
-624.886
-611.939
-595.139
-575.277
-553.204
-530.414
-508.037
-487.6
-472.464
-466.669
-469.892
-478.981
-488.362
-494.961
-497.569
-497.744
-496.974
-495.9
-494.854
-494.167
-493.582
-156.193
-168.862
-175.621
-187.179
-198.362
-211.999
-226.555
-243.67
-262.334
-283.148
-305.93
-330.65
-357.18
-385.327
-414.768
-445.099
-475.865
-506.55
-536.649
-565.635
-592.924
-617.85
-639.811
-658.482
-673.222
-683.57
-689.479
-690.459
-686.32
-677.005
-662.397
-642.747
-618.244
-589.773
-558.657
-526.559
-495.771
-471.525
-458.82
-458.443
-466.726
-478.221
-486.79
-492.561
-495.612
-496.489
-495.836
-494.777
-493.93
-493.057
-141.963
-156.177
-163.439
-175.547
-187.162
-201.123
-216.422
-234.168
-253.585
-275.331
-299.343
-325.632
-354.098
-384.605
-416.896
-450.577
-485.134
-520.001
-554.584
-588.283
-620.419
-650.292
-677.182
-700.427
-719.333
-733.571
-742.518
-745.758
-743.132
-734.378
-719.377
-697.553
-669.233
-634.934
-595.892
-553.482
-510.683
-474.488
-452.774
-447.286
-453.876
-466.451
-480.181
-490.269
-496.208
-498.446
-498.289
-497.269
-496.36
-495.485
-128.2
-142.234
-150.015
-162.196
-174.003
-188.178
-203.762
-221.706
-241.613
-264.104
-289.045
-316.611
-346.761
-379.382
-414.309
-451.206
-489.549
-528.714
-568.016
-606.789
-644.308
-679.735
-712.278
-741.079
-765.304
-784.272
-797.348
-804.211
-804.232
-797.248
-782.936
-760.65
-729.992
-691.191
-644.676
-590.516
-536.442
-490.794
-460.525
-446.284
-446.933
-459.581
-475.971
-489.667
-498.63
-502.228
-502.259
-501.194
-500.39
-499.763
-115.801
-127.657
-136.412
-148.22
-159.767
-173.729
-189.319
-207.182
-227.158
-249.918
-275.392
-303.836
-335.339
-369.794
-407.097
-446.992
-488.939
-532.357
-576.525
-620.652
-663.922
-705.448
-744.304
-779.488
-809.995
-834.846
-853.344
-864.966
-869.141
-864.846
-852.511
-832.586
-801.468
-759.252
-704.644
-641.815
-578.478
-525.923
-486.632
-463.999
-458.346
-464.322
-476.695
-489.568
-499.129
-503.887
-505.025
-504.087
-503.848
-503.593
-109.096
-113.17
-122.934
-133.93
-145.351
-158.93
-173.953
-191.332
-210.948
-233.469
-259.023
-287.905
-320.347
-356.174
-395.468
-438.071
-483.375
-530.966
-580.032
-629.663
-679.033
-727.025
-772.712
-814.977
-852.679
-884.666
-909.645
-927.148
-937.155
-937.68
-927.991
-910.081
-881.368
-833.761
-773.319
-704.676
-639.473
-580.212
-532.876
-504.236
-489.081
-485.422
-488.794
-495.456
-501.771
-505.69
-506.943
-506.814
-506.764
-506.95
-122.688
-102.659
-110.725
-120.426
-131.539
-144.603
-159.071
-175.661
-194.448
-216.341
-241.526
-270.435
-303.334
-340.144
-380.783
-425.308
-473.418
-524.807
-578.696
-633.857
-689.354
-744.132
-796.901
-846.565
-891.999
-932.169
-964.738
-989.242
-1005.9
-1014.24
-1006.55
-985.558
-961.302
-914.635
-849.145
-782.465
-715.461
-655.32
-605.841
-567.542
-540.616
-523.561
-514.896
-511.28
-510.172
-509.826
-509.39
-509.397
-509.572
-510.279
-102.199
-88.8444
-98.2239
-108.531
-119.982
-132.663
-146.117
-161.75
-179.764
-201.27
-226.468
-255.514
-288.965
-327.383
-370.29
-417.008
-468.488
-524.225
-583.685
-645.694
-708.895
-772.02
-833.004
-890.89
-944.238
-991.638
-1031.89
-1064.36
-1088.04
-1104.06
-1107.42
-1092.99
-1046.89
-989.358
-924.199
-855.254
-788.335
-727.752
-674.313
-629.549
-594.5
-568.487
-549.663
-535.84
-525.568
-518.173
-513.418
-511.734
-512.841
-514.206
-89.3377
-88.1251
-94.1508
-102.788
-113.942
-126.454
-140.625
-157.398
-176.765
-200.131
-227.609
-259.47
-296.683
-339.868
-388.5
-442.458
-501.226
-563.878
-629.683
-697.817
-768.037
-838.294
-906.391
-970.147
-1028.85
-1080.47
-1123.88
-1158.47
-1180.9
-1192.23
-1181.45
-1146.36
-1096.07
-1036.94
-973.17
-905.37
-839.095
-778.32
-724.93
-679.135
-640.03
-608.105
-582.242
-561.353
-544.501
-531.089
-521.771
-517.208
-518.083
-519.911
-80.6733
-86.8733
-92.843
-100.96
-112.124
-125.288
-141.756
-160.491
-182.482
-208.651
-239.946
-277.298
-320.816
-370.57
-426.647
-488.527
-555.477
-626.364
-700.569
-777.56
-855.224
-931.476
-1004.08
-1072.02
-1133.17
-1186.15
-1230.18
-1261.68
-1273.4
-1263.23
-1237.45
-1197.89
-1146.87
-1087.32
-1023.85
-958.92
-895.186
-834.572
-777.784
-726.908
-682.728
-644.554
-612.745
-586.191
-564.417
-546.861
-533.827
-526.397
-524.707
-527.999
-73.7974
-81.9612
-89.8029
-99.1095
-110.463
-124.454
-142.035
-162.482
-187.485
-217.29
-253.396
-296.415
-346.357
-403.734
-468.281
-539.448
-616.33
-698.072
-783.152
-869.78
-955.068
-1037.01
-1112.85
-1183.26
-1248.76
-1302.29
-1339.96
-1355.97
-1352.69
-1333.27
-1300.64
-1257.03
-1204.64
-1144.43
-1080.55
-1015.12
-948.499
-884.052
-823.781
-767.757
-718.386
-675.163
-638.485
-607.986
-582.966
-562.94
-547.771
-538.016
-534.41
-540.013
-66.2072
-74.7384
-83.3763
-93.5289
-105.758
-120.546
-138.739
-161.521
-189.158
-222.283
-262.77
-311.741
-369.496
-436.503
-511.498
-593.992
-683.076
-777.225
-873.48
-968.866
-1060.87
-1148.27
-1231.08
-1305.89
-1370.47
-1413.48
-1433.81
-1438.35
-1427.48
-1402.05
-1364.67
-1316.39
-1260.67
-1198.67
-1131.41
-1062.43
-992.723
-924.08
-859.428
-799.337
-745.207
-697.912
-657.599
-624.216
-597.283
-576.08
-560.13
-549.737
-546.461
-550.609
-57.1253
-65.3922
-74.2429
-83.8607
-96.283
-112.554
-131.479
-155.835
-185.46
-221.771
-267.275
-323.589
-391.508
-469.847
-557.611
-653.8
-756.627
-863.141
-969.832
-1074.27
-1175.35
-1271.54
-1359.58
-1429.24
-1476.54
-1504.93
-1516
-1512.56
-1494.54
-1462.27
-1419.97
-1367.36
-1306.67
-1240.68
-1169.58
-1096.25
-1022.74
-950.663
-881.807
-818.042
-760.447
-710.009
-667.312
-632.3
-604.499
-583.237
-567.864
-558.208
-554.987
-557.003
-46.4008
-52.654
-61.0353
-70.6396
-82.5227
-99.1367
-118.879
-143.969
-175.247
-215.787
-268.393
-334.243
-413.54
-504.962
-607.439
-718.628
-836.333
-956.156
-1075.38
-1192.27
-1302.92
-1398.67
-1473.63
-1528.25
-1563.79
-1581.85
-1584.24
-1573.16
-1548.4
-1508.76
-1460.58
-1403.15
-1337
-1266.01
-1190.9
-1113.68
-1036.27
-960.76
-888.781
-822
-761.92
-709.587
-665.558
-629.861
-602.031
-581.392
-567.216