/*--------------------------------*- C++ -*----------------------------------*\
| =========                 |                                                 |
| \\      /  F ield         | OpenFOAM: The Open Source CFD Toolbox           |
|  \\    /   O peration     | Version:  v1912                                 |
|   \\  /    A nd           | Website:  www.openfoam.com                      |
|    \\/     M anipulation  |                                                 |
\*---------------------------------------------------------------------------*/
FoamFile
{
    version     2.0;
    format      ascii;
    class       surfaceScalarField;
    location    "0.25";
    object      phi;
}
// * * * * * * * * * * * * * * * * * * * * * * * * * * * * * * * * * * * * * //

dimensions      [0 3 -1 0 0 0 0];
oriented        oriented;


internalField   nonuniform List<scalar> 
13060
(
0.00559318
0.988668
-0.994261
0.00731876
0.946165
-0.947891
0.00829739
0.900811
-0.90179
0.00869779
0.857971
-0.858372
0.00874827
0.818108
-0.818158
0.00843958
0.780443
-0.780134
0.00786524
0.744578
-0.744003
0.00711549
0.71016
-0.70941
0.0065364
0.677046
-0.676467
0.00597351
0.645499
-0.644937
0.00535509
0.615231
-0.614613
0.00488537
0.586223
-0.585753
0.0045326
0.558382
-0.558029
0.00425073
0.531761
-0.531479
0.00403085
0.506161
-0.505941
0.00386745
0.481503
-0.48134
0.00375794
0.457875
-0.457765
0.00369057
0.435119
-0.435052
0.00365346
0.413367
-0.41333
0.00363734
0.392509
-0.392493
0.00364853
0.372533
-0.372545
0.00375267
0.353343
-0.353448
0.00409221
0.334895
-0.335234
0.00438116
0.317389
-0.317678
0.00447451
0.300827
-0.300921
0.00453122
0.284827
-0.284884
0.00454103
0.269548
-0.269558
0.00444864
0.255123
-0.255031
0.00428784
0.241431
-0.24127
0.00412561
0.22839
-0.228228
0.00396194
0.216088
-0.215924
0.00375433
0.20445
-0.204242
0.00348131
0.193417
-0.193144
0.00318801
0.182985
-0.182691
0.00284648
0.173186
-0.172844
0.00242947
0.164002
-0.163585
0.00197875
0.155424
-0.154973
0.0015018
0.147405
-0.146928
0.000982327
0.139884
-0.139365
0.000448957
0.132868
-0.132335
-0.000100471
0.126325
-0.125775
-0.000686462
0.120218
-0.119632
-0.00125862
0.11451
-0.113938
-0.00179745
0.109263
-0.108724
-0.00230179
0.104382
-0.103878
-0.00271537
0.0998871
-0.0994735
-0.00317967
0.0953884
-0.0949241
-0.00325463
0.0916866
-0.0916116
-0.0023851
0.0830988
-0.0839683
0.0545805
-0.0569656
0.00564599
0.983022
0.00594389
0.945867
0.00567728
0.901078
0.00481235
0.858836
0.0041203
0.8188
0.00362098
0.780942
0.00319429
0.745004
0.00282397
0.71053
0.00224872
0.677622
0.00162085
0.646127
0.00121371
0.615638
0.000745948
0.586691
0.000248771
0.558879
-0.000200231
0.53221
-0.000582006
0.506542
-0.000901792
0.481823
-0.00115967
0.458133
-0.00136174
0.435321
-0.00150676
0.413512
-0.00159877
0.392601
-0.00166069
0.372595
-0.00180127
0.353484
-0.0021568
0.33525
-0.00248831
0.31772
-0.0024832
0.300822
-0.00246522
0.284809
-0.00251575
0.269598
-0.00246642
0.255074
-0.00237692
0.241341
-0.00238979
0.228403
-0.00245868
0.216157
-0.00255301
0.204544
-0.00266621
0.193531
-0.00284636
0.183165
-0.0030544
0.173394
-0.00325614
0.164204
-0.00349379
0.155661
-0.00376113
0.147673
-0.00403445
0.140158
-0.00431768
0.133152
-0.00460444
0.126611
-0.00485782
0.120472
-0.00508063
0.114733
-0.00524813
0.10943
-0.00534362
0.104477
-0.00534801
0.0998914
-0.0053449
0.0953853
-0.00470568
0.0910473
-0.00313282
0.0815259
0.0514476
0.0050241
0.977998
0.00553898
0.945353
0.00504338
0.901574
0.00380392
0.860076
0.0024849
0.820119
0.000910347
0.782517
-0.000697801
0.746612
-0.00224465
0.712077
-0.00346789
0.678845
-0.00455267
0.647212
-0.00571251
0.616798
-0.00663217
0.58761
-0.00736647
0.559613
-0.0079864
0.53283
-0.00850561
0.507062
-0.00893104
0.482249
-0.00926846
0.45847
-0.00953875
0.435592
-0.00975382
0.413727
-0.0099316
0.392779
-0.0100518
0.372715
-0.00997805
0.35341
-0.00955333
0.334826
-0.00926551
0.317432
-0.00926906
0.300826
-0.00918275
0.284723
-0.00905494
0.269471
-0.00907058
0.25509
-0.00909628
0.241367
-0.00905489
0.228362
-0.00900194
0.216104
-0.00896548
0.204508
-0.00895046
0.193516
-0.00891628
0.183131
-0.00891387
0.173391
-0.00895862
0.164248
-0.00899714
0.1557
-0.00902307
0.147699
-0.00905605
0.140191
-0.00907541
0.133171
-0.00904139
0.126577
-0.00895427
0.120385
-0.00881169
0.11459
-0.00859575
0.109214
-0.00828903
0.104171
-0.00786266
0.0994651
-0.0073189
0.0948416
-0.00611253
0.089841
-0.00386985
0.0792832
0.0475778
0.00381646
0.974181
0.00259969
0.946569
0.000612882
0.90356
-0.00109879
0.861787
-0.00285944
0.82188
-0.00427009
0.783927
-0.00547135
0.747814
-0.00666212
0.713268
-0.00789134
0.680074
-0.00899794
0.648319
-0.00989647
0.617697
-0.010804
0.588518
-0.0116742
0.560484
-0.0124434
0.533599
-0.0131128
0.507731
-0.013688
0.482824
-0.0141711
0.458953
-0.014568
0.435989
-0.0148724
0.414031
-0.0150816
0.392988
-0.0152416
0.372876
-0.0155312
0.3537
-0.0159963
0.335291
-0.0162558
0.317692
-0.0161586
0.300728
-0.016097
0.284661
-0.0160573
0.269431
-0.0158697
0.254902
-0.0156556
0.241153
-0.0155016
0.228208
-0.015371
0.215973
-0.0152292
0.204366
-0.0150744
0.193361
-0.0149511
0.183007
-0.0148059
0.173246
-0.0146207
0.164063
-0.0144368
0.155516
-0.0142391
0.147501
-0.0139989
0.13995
-0.0137108
0.132883
-0.0133751
0.126242
-0.0129773
0.119987
-0.0124994
0.114113
-0.0119222
0.108637
-0.0112344
0.103483
-0.0103598
0.0985905
-0.00939948
0.0938812
-0.00774448
0.088186
-0.00468171
0.0762205
0.0428961
0.00265167
0.97153
0.00158905
0.947632
-0.00058494
0.905734
-0.00250072
0.863703
-0.00500157
0.824381
-0.00762895
0.786555
-0.0100663
0.750251
-0.012263
0.715465
-0.0141059
0.681917
-0.0157787
0.649991
-0.0174156
0.619333
-0.0187639
0.589866
-0.0198758
0.561595
-0.020825
0.534549
-0.0216258
0.508532
-0.0222969
0.483495
-0.0228445
0.459501
-0.023283
0.436427
-0.0236237
0.414372
-0.0238782
0.393243
-0.0240106
0.373008
-0.0238157
0.353505
-0.0233312
0.334806
-0.0230339
0.317394
-0.023053
0.300748
-0.0229353
0.284543
-0.0226952
0.269191
-0.0225639
0.254771
-0.0224333
0.241022
-0.0222013
0.227976
-0.021909
0.215681
-0.0216065
0.204064
-0.0212949
0.193049
-0.020922
0.182634
-0.020548
0.172872
-0.0201901
0.163705
-0.0197856
0.155112
-0.0193254
0.147041
-0.018824
0.139449
-0.018264
0.132323
-0.0176186
0.125596
-0.0168818
0.11925
-0.0160575
0.113288
-0.0151301
0.10771
-0.0140994
0.102452
-0.0129636
0.0974546
-0.0115388
0.0924565
-0.00933317
0.0859803
-0.00547769
0.072365
0.0374184
0.00105222
0.970477
-0.00190841
0.950593
-0.00516547
0.908992
-0.00817895
0.866717
-0.0108658
0.827067
-0.0130532
0.788742
-0.0150379
0.752236
-0.0169657
0.717393
-0.0188499
0.683801
-0.0204243
0.651566
-0.0217615
0.620671
-0.023046
0.591151
-0.0242578
0.562807
-0.0253255
0.535616
-0.0262518
0.509458
-0.0270452
0.484288
-0.0277099
0.460165
-0.0282584
0.436976
-0.0286874
0.414801
-0.0290026
0.393558
-0.0292679
0.373273
-0.0297379
0.353975
-0.0303545
0.335423
-0.0305257
0.317566
-0.0302301
0.300452
-0.0300118
0.284325
-0.0298543
0.269033
-0.0294939
0.25441
-0.0290562
0.240585
-0.0286667
0.227586
-0.0282734
0.215288
-0.0278226
0.203613
-0.0273296
0.192556
-0.0268432
0.182148
-0.0262957
0.172325
-0.025673
0.163083
-0.0250147
0.154453
-0.0243074
0.146334
-0.0235243
0.138666
-0.0226594
0.131458
-0.0217222
0.124659
-0.0207091
0.118237
-0.0196008
0.11218
-0.0183707
0.10648
-0.0170102
0.101092
-0.0156592
0.0961035
-0.0137887
0.090586
-0.011041
0.0832327
-0.00627843
0.0676024
0.03114
0.000411245
0.970066
-0.00299965
0.954003
-0.00666924
0.912661
-0.00998342
0.870031
-0.01341
0.830494
-0.0168867
0.792219
-0.0201656
0.755515
-0.023009
0.720236
-0.0254431
0.686235
-0.0278129
0.653936
-0.0300077
0.622866
-0.0318059
0.592949
-0.0333004
0.564302
-0.0345921
0.536908
-0.035688
0.510554
-0.0366064
0.485207
-0.0373509
0.46091
-0.0379363
0.437561
-0.0383733
0.415238
-0.0386665
0.393851
-0.0387523
0.373359
-0.0383439
0.353567
-0.0376742
0.334753
-0.0373543
0.317246
-0.037367
0.300465
-0.0371221
0.28408
-0.0366655
0.268577
-0.036301
0.254046
-0.0359203
0.240204
-0.0354038
0.22707
-0.0347902
0.214674
-0.0341408
0.202963
-0.0334469
0.191862
-0.0326588
0.18136
-0.0318439
0.17151
-0.0310155
0.162254
-0.0301161
0.153554
-0.0291344
0.145352
-0.0280882
0.13762
-0.0269717
0.130342
-0.0257603
0.123448
-0.0244483
0.116925
-0.0230569
0.110789
-0.0216057
0.105029
-0.0200737
0.0995598
-0.0183507
0.0943805
-0.0160809
0.0883163
-0.0126931
0.0798448
-0.00698583
0.0618951
0.0241541
-0.000955702
0.971022
-0.00650456
0.959552
-0.0113728
0.917529
-0.0156099
0.874268
-0.0193157
0.8342
-0.0223306
0.795234
-0.0251443
0.758328
-0.0278177
0.722909
-0.030353
0.688771
-0.0324187
0.656001
-0.0341679
0.624615
-0.0358634
0.594644
-0.0374446
0.565883
-0.0388333
0.538297
-0.0400348
0.511755
-0.0410589
0.486231
-0.0419146
0.461766
-0.0426122
0.438258
-0.0431519
0.415778
-0.0435538
0.394253
-0.0439188
0.373724
-0.0445608
0.354209
-0.0452452
0.335437
-0.0452455
0.317246
-0.0446978
0.299917
-0.044249
0.283631
-0.043877
0.268205
-0.0432717
0.25344
-0.0425354
0.239468
-0.0418084
0.226343
-0.0410571
0.213923
-0.0402115
0.202118
-0.0392937
0.190944
-0.0383632
0.180429
-0.0373552
0.170502
-0.0362527
0.161152
-0.0350905
0.152392
-0.0338672
0.144129
-0.0325659
0.136318
-0.0311737
0.128949
-0.0297094
0.121983
-0.0281899
0.115405
-0.0265937
0.109192
-0.0248866
0.103321
-0.0232414
0.0979145
-0.0211355
0.0922747
-0.0184654
0.0856462
-0.0142296
0.075609
-0.00759991
0.0552654
0.0165542
-0.0016648
0.972687
-0.00738276
0.96527
-0.012666
0.922813
-0.017436
0.879038
-0.0219728
0.838737
-0.0264258
0.799687
-0.0303826
0.762285
-0.0338257
0.726352
-0.0369359
0.691881
-0.0399477
0.659013
-0.0427552
0.627422
-0.0450641
0.596953
-0.0470089
0.567828
-0.0486898
0.539978
-0.0501133
0.513179
-0.0513047
0.487422
-0.052263
0.462724
-0.0530047
0.439
-0.0535378
0.416311
-0.0538509
0.394566
-0.0538332
0.373706
-0.0532275
0.353603
-0.0523431
0.334553
-0.0519464
0.316849
-0.0518658
0.299836
-0.0514302
0.283196
-0.050684
0.267459
-0.049988
0.252744
-0.0492774
0.238757
-0.0484046
0.22547
-0.0473929
0.212911
-0.0463261
0.201051
-0.0451968
0.189815
-0.0439495
0.179182
-0.0426567
0.169209
-0.0413411
0.159836
-0.0399561
0.151007
-0.0384871
0.14266
-0.0369489
0.13478
-0.0353523
0.127353
-0.0336825
0.120314
-0.0319305
0.113653
-0.030134
0.107396
-0.0283715
0.101559
-0.0264225
0.0959655
-0.0239199
0.0897721
-0.0205686
0.0822948
-0.0151386
0.070179
-0.00688153
0.0470084
0.0096727
-0.00318373
0.97587
-0.0106558
0.972742
-0.0169479
0.929105
-0.0226655
0.884756
-0.0274143
0.843485
-0.0313788
0.803651
-0.0350434
0.76595
-0.038587
0.729896
-0.0416835
0.694977
-0.0441798
0.66151
-0.0463531
0.629595
-0.048489
0.599089
-0.0504886
0.569827
-0.05225
0.541739
-0.0537816
0.51471
-0.0550844
0.488725
-0.0561722
0.463812
-0.0570515
0.439879
-0.05773
0.416989
-0.0582518
0.395088
-0.05876
0.374214
-0.0595072
0.35435
-0.0601832
0.335229
-0.0599915
0.316658
-0.0591208
0.298966
-0.0583554
0.28243
-0.0577212
0.266824
-0.0568256
0.251849
-0.0557245
0.237656
-0.0545961
0.224342
-0.0534346
0.211749
-0.0521542
0.199771
-0.0507774
0.188438
-0.0493885
0.177793
-0.0479291
0.16775
-0.0463745
0.158281
-0.0447521
0.149384
-0.0430747
0.140982
-0.0413405
0.133046
-0.0395272
0.12554
-0.0376538
0.11844
-0.0357562
0.111756
-0.0338378
0.105477
-0.0319325
0.0996538
-0.0295672
0.0936002
-0.0267377
0.0869426
-0.0224433
0.0780004
-0.0152185
0.0629542
-0.00497328
0.0367632
0.00469943
-0.00443718
0.980307
-0.0114924
0.979798
-0.0179787
0.935591
-0.0240458
0.890823
-0.0296756
0.849115
-0.0350047
0.80898
-0.0397058
0.770651
-0.0437526
0.733943
-0.0475255
0.69875
-0.0512933
0.665277
-0.0547392
0.633041
-0.0576191
0.601969
-0.0600777
0.572286
-0.0622223
0.543884
-0.0640534
0.516542
-0.0655861
0.490258
-0.0668224
0.465048
-0.0677748
0.440832
-0.068447
0.417662
-0.0688042
0.395445
-0.0687017
0.374112
-0.0679227
0.353571
-0.0668525
0.334159
-0.0662888
0.316094
-0.0660813
0.298758
-0.0654579
0.281807
-0.0643724
0.265739
-0.0632827
0.250759
-0.0622024
0.236576
-0.0609484
0.223088
-0.0595137
0.210315
-0.0580114
0.198268
-0.056457
0.186884
-0.0547795
0.176116
-0.0530487
0.166019
-0.0512987
0.156531
-0.0494995
0.147585
-0.0476363
0.139119
-0.0457104
0.13112
-0.0437463
0.123575
-0.0417452
0.116439
-0.0396968
0.109707
-0.0377473
0.103528
-0.0355007
0.0974072
-0.0327826
0.0908821
-0.0291056
0.0832656
-0.0234614
0.0723562
-0.0146882
0.054181
-0.00307647
0.0251514
0.00162296
-0.00546505
0.985773
-0.0144497
0.988782
-0.0218414
0.942983
-0.0284598
0.897441
-0.0339896
0.854645
-0.0388123
0.813803
-0.0433254
0.775164
-0.0476118
0.738229
-0.0514502
0.702589
-0.0545428
0.66837
-0.0572532
0.635752
-0.0599285
0.604644
-0.0624352
0.574792
-0.0646764
0.546125
-0.0666378
0.518503
-0.0683264
0.491946
-0.069742
0.466464
-0.0708922
0.441982
-0.0717859
0.418555
-0.072476
0.396135
-0.073114
0.37475
-0.0739506
0.354408
-0.074632
0.33484
-0.0743306
0.315793
-0.0731549
0.297583
-0.0720184
0.28067
-0.0711079
0.264828
-0.0699322
0.249583
-0.0684553
0.235099
-0.0669049
0.221537
-0.0653332
0.208743
-0.0636427
0.196578
-0.0618384
0.18508
-0.0600366
0.174314
-0.0581897
0.164172
-0.0562621
0.154604
-0.054273
0.145596
-0.0522413
0.137087
-0.0501871
0.129066
-0.0480836
0.121472
-0.0459288
0.114284
-0.0439242
0.107703
-0.041762
0.101366
-0.039171
0.0948161
-0.0359413
0.0876525
-0.0313189
0.0786432
-0.0239449
0.0649822
-0.0129733
0.0432094
-0.0018702
0.0140483
-0.00024724
-0.00632539
0.992098
-0.0144227
0.99688
-0.0216619
0.950222
-0.028708
0.904487
-0.0351406
0.861078
-0.04122
0.819882
-0.046598
0.780542
-0.0513953
0.743026
-0.0559225
0.707116
-0.06044
0.672887
-0.0646768
0.639989
-0.0683258
0.608293
-0.0714825
0.577949
-0.0742452
0.548888
-0.0766323
0.52089
-0.078657
0.493971
-0.0803148
0.468121
-0.08161
0.443277
-0.0825372
0.419482
-0.083049
0.396647
-0.0830063
0.374707
-0.0821725
0.353574
-0.0809331
0.333601
-0.0801449
0.315005
-0.0797915
0.297229
-0.0790416
0.279921
-0.0776401
0.263427
-0.076133
0.248076
-0.0746842
0.23365
-0.0730772
0.21993
-0.0712459
0.206912
-0.0693319
0.194664
-0.067403
0.183151
-0.0653667
0.172278
-0.0632796
0.162085
-0.0611839
0.152508
-0.059064
0.143476
-0.0569193
0.134943
-0.0547279
0.126874
-0.0525186
0.119263
-0.050436
0.112202
-0.0483078
0.105574
-0.0458144
0.0988724
-0.0429431
0.0919448
-0.0390902
0.0837995
-0.0331181
0.0726711
-0.0234501
0.0553142
-0.00946086
0.0292202
-0.00115426
0.00574172
-0.0014015
-0.00651902
0.998617
-0.0164072
1.00677
-0.0244616
0.958276
-0.0316777
0.911703
-0.0378986
0.867299
-0.0434752
0.825459
-0.0487853
0.785852
-0.0538458
0.748087
-0.058376
0.711646
-0.0622018
0.676713
-0.0655876
0.643375
-0.0689843
0.61169
-0.0722122
0.581177
-0.0751436
0.551819
-0.0777424
0.523489
-0.0800138
0.496242
-0.081948
0.470056
-0.0835447
0.444874
-0.0848098
0.420747
-0.0857868
0.397624
-0.0866153
0.375536
-0.0875789
0.354538
-0.0883977
0.334419
-0.0881584
0.314765
-0.0868066
0.295877
-0.0853172
0.278431
-0.08412
0.26223
-0.0827208
0.246677
-0.0809026
0.231832
-0.0789387
0.217966
-0.076974
0.204947
-0.0749277
0.192618
-0.0727589
0.180982
-0.0706099
0.170129
-0.0684467
0.159922
-0.0662316
0.150293
-0.0639844
0.141229
-0.0617068
0.132665
-0.0594412
0.124609
-0.0572554
0.117077
-0.0551171
0.110063
-0.0527242
0.103182
-0.0500401
0.0961883
-0.0466247
0.0885295
-0.0414963
0.078671
-0.0328128
0.0639877
-0.0194501
0.0419515
-0.00540011
0.0151702
-0.000558615
0.000900219
-0.00196011
-0.00643161
1.00505
-0.0148521
1.01519
-0.0226016
0.966025
-0.0300809
0.919183
-0.0370864
0.874304
-0.0437868
0.832159
-0.0498543
0.79192
-0.0553769
0.753609
-0.060711
0.71698
-0.0660742
0.682076
-0.0713216
0.648622
-0.0759234
0.616292
-0.0799942
0.585248
-0.083659
0.555484
-0.0869055
0.526735
-0.0897026
0.49904
-0.0920465
0.472399
-0.0939418
0.446769
-0.0953663
0.422172
-0.0962757
0.398533
-0.0965393
0.375799
-0.0958822
0.35388
-0.0945696
0.333107
-0.0935656
0.313761
-0.0931005
0.295412
-0.0923232
0.277654
-0.0907298
0.260636
-0.0888428
0.24479
-0.0870275
0.230016
-0.0850979
0.216037
-0.0829165
0.202766
-0.08062
0.190321
-0.0783555
0.178718
-0.0760196
0.167793
-0.0736478
0.15755
-0.0712917
0.147937
-0.0689356
0.138873
-0.0666114
0.130341
-0.0643345
0.122332
-0.0621555
0.114898
-0.0598315
0.107739
-0.0572209
0.100571
-0.0540346
0.093002
-0.0494131
0.083908
-0.0417227
0.0709806
-0.0294327
0.0516976
-0.0126792
0.025198
-0.00262983
0.00512085
-4.02997e-05
-0.00168932
-0.00200041
-0.0057055
1.01075
-0.0154128
1.0249
-0.0235538
0.974167
-0.0309806
0.92661
-0.0375028
0.880826
-0.0436567
0.838313
-0.0496509
0.797914
-0.0555326
0.759491
-0.0610239
0.722471
-0.0658438
0.686896
-0.0701714
0.65295
-0.0744769
0.620597
-0.0786794
0.58945
-0.0825995
0.559404
-0.0861622
0.530298
-0.0893383
0.502216
-0.0921093
0.47517
-0.0944587
0.449119
-0.0963822
0.424096
-0.0978996
0.400051
-0.0991374
0.377037
-0.100388
0.355131
-0.101554
0.334273
-0.101655
0.313862
-0.100343
0.294101
-0.098607
0.275917
-0.0971342
0.259163
-0.0955389
0.243195
-0.0934578
0.227935
-0.0910968
0.213676
-0.088726
0.200395
-0.0863431
0.187938
-0.0838463
0.176221
-0.0813814
0.165328
-0.0789473
0.155116
-0.0764963
0.145486
-0.0740731
0.13645
-0.0716792
0.127947
-0.0694254
0.120078
-0.0671133
0.112586
-0.0645239
0.10515
-0.0614583
0.0975054
-0.0572365
0.0887802
-0.0502047
0.0768761
-0.0384439
0.0592199
-0.0209795
0.0342332
-0.00623671
0.0104552
-0.00101266
-0.000103205
0.000148647
-0.00285062
-0.00185176
-0.0046589
1.01541
-0.0122836
1.03252
-0.0196089
0.981492
-0.0271781
0.934179
-0.0342592
0.887907
-0.0414021
0.845456
-0.0480916
0.804603
-0.0543938
0.765793
-0.0606115
0.728689
-0.0669988
0.693284
-0.0733898
0.659341
-0.0792072
0.626415
-0.084513
0.594756
-0.0894322
0.564323
-0.0939172
0.534783
-0.0979054
0.506204
-0.101356
0.478621
-0.104239
0.452002
-0.106539
0.426395
-0.108222
0.401734
-0.109159
0.377974
-0.109078
0.35505
-0.107974
0.333169
-0.106831
0.312719
-0.106324
0.293594
-0.105667
0.275261
-0.104075
0.257571
-0.101893
0.241012
-0.0996889
0.225732
-0.0974285
0.211415
-0.0949184
0.197885
-0.0922264
0.185246
-0.0895971
0.173592
-0.0869541
0.162685
-0.0842952
0.152457
-0.0817173
0.142908
-0.0792009
0.133933
-0.0768383
0.125584
-0.0744819
0.117722
-0.071868
0.109972
-0.0688447
0.102127
-0.0648456
0.0935063
-0.0583003
0.0822348
-0.0469326
0.0655084
-0.0291722
0.0414595
-0.0112141
0.0162751
-0.0027454
0.00198652
-0.000182889
-0.00266572
0.000201919
-0.00323543
-0.00164985
-0.00377255
1.01919
-0.0114827
1.04023
-0.0187192
0.988728
-0.0257067
0.941166
-0.0322421
0.894443
-0.0387148
0.851929
-0.0452186
0.811107
-0.0518092
0.772384
-0.0582595
0.73514
-0.0642259
0.69925
-0.0697728
0.664887
-0.0753644
0.632006
-0.0808792
0.600271
-0.0860782
0.569522
-0.0909894
0.539694
-0.095529
0.510744
-0.0995951
0.482687
-0.103146
0.455553
-0.106152
0.429401
-0.108604
0.404186
-0.110595
0.379965
-0.112419
0.356874
-0.114182
0.334932
-0.115041
0.313577
-0.114192
0.292745
-0.112365
0.273434
-0.110609
0.255815
-0.108838
0.239242
-0.106572
0.223465
-0.103825
0.208669
-0.100966
0.195025
-0.0981753
0.182455
-0.0952947
0.170711
-0.0924377
0.159828
-0.0897038
0.149723
-0.0870318
0.140236
-0.0844969
0.131398
-0.0819856
0.123073
-0.079292
0.115028
-0.0762369
0.106917
-0.0723327
0.0982224
-0.0661363
0.0873099
-0.055061
0.0711596
-0.0368809
0.0473283
-0.0165808
0.0211594
-0.00473866
0.00443297
-0.000730135
-0.00202201
0.000319019
-0.00371487
0.000265022
-0.00318143
-0.00138482
-0.000356207
1.01954
-0.00642057
1.04629
-0.0126811
0.994989
-0.0194756
0.947961
-0.0263585
0.901326
-0.033617
0.859187
-0.0406451
0.818135
-0.0476288
0.779368
-0.0547334
0.742244
-0.0621824
0.706699
-0.0698323
0.672537
-0.0771097
0.639284
-0.0839836
0.607145
-0.0905464
0.576085
-0.0966869
0.545835
-0.102358
0.516414
-0.107444
0.487773
-0.111875
0.459984
-0.115609
0.433135
-0.118601
0.407178
-0.120742
0.382106
-0.121765
0.357897
-0.121345
0.334512
-0.120315
0.312548
-0.119812
0.292242
-0.119433
0.273055
-0.118101
0.254483
-0.115774
0.236915
-0.113124
0.220816
-0.110446
0.205991
-0.107581
0.19216
-0.104413
0.179287
-0.101263
0.167562
-0.0981987
0.156763
-0.0951447
0.146669
-0.0923042
0.137396
-0.0895097
0.128604
-0.0866839
0.120247
-0.0835686
0.111913
-0.0796737
0.103022
-0.0736522
0.0922009
-0.0628323
0.07649
-0.0439042
0.0522314
-0.0219159
0.0253401
-0.00751164
0.00675513
-0.00203799
-0.00104068
-0.000284881
-0.00377513
0.000195232
-0.00419498
0.00016399
-0.00315019
-0.00122083
0.00090531
1.01864
-0.0042758
1.05148
-0.00995606
1.00067
-0.0159456
0.95395
-0.0218959
0.907276
-0.0282747
0.865566
-0.0349673
0.824828
-0.0421241
0.786524
-0.049435
0.749555
-0.0565175
0.713781
-0.0633802
0.6794
-0.0704909
0.646394
-0.0776765
0.614331
-0.0846305
0.583039
-0.0912474
0.552451
-0.0975364
0.522703
-0.103455
0.493692
-0.108806
0.465336
-0.113485
0.437814
-0.117446
0.411139
-0.120735
0.385395
-0.123536
0.360698
-0.126193
0.337169
-0.128206
0.31456
-0.128467
0.292503
-0.126953
0.271542
-0.124969
0.252498
-0.122999
0.234945
-0.120627
0.218444
-0.117564
0.202927
-0.114086
0.188682
-0.110679
0.17588
-0.107211
0.164094
-0.10371
0.153262
-0.100538
0.143497
-0.097392
0.13425
-0.0942232
0.125435
-0.0908799
0.116904
-0.0868336
0.107866
-0.0807542
0.0969426
-0.0700166
0.0814633
-0.0503464
0.0568198
-0.026959
0.0288441
-0.0109202
0.00930119
-0.00427057
0.000105542
-0.00194232
-0.00336893
-0.00108716
-0.00463029
-0.000588945
-0.0046932
-0.000171831
-0.00356731
-0.00139266
0.00386522
1.01477
0.00110351
1.05424
-0.0027675
1.00454
-0.00796582
0.959148
-0.013927
0.913237
-0.0207464
0.872386
-0.0277794
0.831861
-0.0351033
0.793848
-0.0428547
0.757306
-0.0512371
0.722164
-0.0600982
0.688261
-0.0688326
0.655129
-0.0773886
0.622887
-0.0858523
0.591503
-0.0940908
0.56069
-0.101889
0.530502
-0.109134
0.500936
-0.115744
0.471946
-0.121593
0.443663
-0.126584
0.41613
-0.130598
0.389409
-0.133382
0.363481
-0.134442
0.338229
-0.134139
0.314257
-0.133855
0.292219
-0.133814
0.2715
-0.133015
0.251699
-0.130861
0.232792
-0.127788
0.215371
-0.124522
0.199661
-0.121212
0.185372
-0.117471
0.172139
-0.113491
0.160114
-0.109674
0.149445
-0.105919
0.139742
-0.102103
0.130434
-0.0983206
0.121653
-0.0938797
0.112463
-0.0874635
0.10145
-0.076475
0.0859542
-0.0561914
0.0611797
-0.0313211
0.0319495
-0.0138556
0.0113786
-0.00596141
0.00140701
-0.00308283
-0.00277304
-0.00189453
-0.00455724
-0.00128234
-0.00524247
-0.000830788
-0.00514475
-0.000357432
-0.00404066
-0.0017501
0.00516833
1.0096
0.00365319
1.05575
0.000560595
1.00763
-0.00334098
0.96305
-0.00822517
0.918121
-0.0137469
0.877907
-0.0199845
0.838098
-0.0272324
0.801096
-0.0349407
0.765015
-0.0427646
0.729988
-0.050711
0.696208
-0.0592449
0.663663
-0.0681124
0.631754
-0.0769929
0.600383
-0.0857848
0.569482
-0.0943345
0.539052
-0.102488
0.50909
-0.110212
0.47967
-0.117248
0.450699
-0.123401
0.422283
-0.128662
0.394669
-0.133082
0.367902
-0.137127
0.342275
-0.140791
0.317921
-0.142685
0.294114
-0.142297
0.271111
-0.140507
0.24991
-0.138347
0.230633
-0.135925
0.212948
-0.13273
0.196466
-0.128573
0.181215
-0.124225
0.167791
-0.119939
0.155827
-0.115421
0.144927
-0.11082
0.135141
-0.106243
0.125857
-0.10104
0.11645
-0.0939195
0.105342
-0.0823434
0.0898742
-0.0613621
0.0649729
-0.0347368
0.0345543
-0.0153386
0.0125514
-0.00571351
0.00175342
-0.00163414
-0.00267236
2.39168e-05
-0.00443109
0.000459896
-0.00499322
0.000293982
-0.00507656
-3.71981e-05
-0.00481357
-0.00016239
-0.00391547
-0.00191249
0.0103169
0.999286
0.0100773
1.05599
0.00870168
1.00901
0.00503608
0.966716
0.000664268
0.922493
-0.00481405
0.883386
-0.0112488
0.844533
-0.0182726
0.80812
-0.0260178
0.77276
-0.034818
0.738788
-0.0444861
0.705876
-0.0543174
0.673494
-0.06439
0.641827
-0.074734
0.610727
-0.0851028
0.579851
-0.0952899
0.549239
-0.10516
0.51896
-0.114454
0.488964
-0.123052
0.459297
-0.130801
0.430032
-0.137453
0.401321
-0.142808
0.373256
-0.146412
0.345879
-0.147789
0.319297
-0.148181
0.294506
-0.148677
0.271607
-0.148656
0.249888
-0.147236
0.229213
-0.144193
0.209906
-0.140221
0.192494
-0.136254
0.177248
-0.131859
0.163396
-0.126748
0.150716
-0.12139
0.139569
-0.115604
0.129355
-0.109156
0.119409
-0.100844
0.108137
-0.0879443
0.0924427
-0.0656522
0.0675821
-0.0370334
0.036354
-0.0144536
0.0119745
-0.00228679
0.00038459
0.00370121
-0.00423458
0.00610913
-0.00508028
0.00656889
-0.00489085
0.00579219
-0.00421652
0.00419379
-0.00347816
0.00228868
-0.00290847
0.000705381
-0.00233217
-0.00120711
0.00917164
0.990114
0.0107672
1.0544
0.0109553
1.00882
0.00935803
0.968313
0.00643327
0.925418
0.00243596
0.887383
-0.00283741
0.849807
-0.00929727
0.81458
-0.0166326
0.780095
-0.0244694
0.746625
-0.0329169
0.714323
-0.0423959
0.682973
-0.0525678
0.651999
-0.0631283
0.621288
-0.0740038
0.590726
-0.0849958
0.560231
-0.0958308
0.529795
-0.10627
0.499403
-0.116131
0.469159
-0.125244
0.439144
-0.13337
0.409447
-0.140333
0.38022
-0.146386
0.351932
-0.152011
0.324923
-0.156282
0.298777
-0.158146
0.273471
-0.157576
0.249319
-0.155505
0.227141
-0.152931
0.207332
-0.149859
0.189421
-0.145447
0.172836
-0.139753
0.157702
-0.133867
0.144831
-0.127306
0.133008
-0.119468
0.121517
-0.109416
0.109357
-0.0941019
0.0928229
-0.069036
0.0673768
-0.0375499
0.036096
-0.0112187
0.0100228
0.00378136
-0.00302558
0.0109734
-0.00680746
0.0135139
-0.00677507
0.0137297
-0.00529614
0.0125816
-0.00374272
0.0104649
-0.00209976
0.00769207
-0.000705366
0.00459245
0.000191147
0.00167587
0.000584409
0.000468762
0.0156212
0.974493
0.0177703
1.05225
0.0187459
1.00784
0.0171728
0.969886
0.0149491
0.927641
0.0109693
0.891363
0.00616157
0.854614
0.000381139
0.82036
-0.00667837
0.787155
-0.0152047
0.755151
-0.0248281
0.723947
-0.0350218
0.693167
-0.0459659
0.662943
-0.057695
0.633017
-0.0699053
0.602936
-0.0823616
0.572687
-0.0948355
0.542269
-0.107084
0.511651
-0.118854
0.480929
-0.129917
0.450208
-0.13992
0.419449
-0.148679
0.388979
-0.155686
0.35894
-0.160138
0.329374
-0.162507
0.301146
-0.164014
0.274978
-0.164718
0.250023
-0.164683
0.227106
-0.162889
0.205539
-0.158684
0.185215
-0.153373
0.167526
-0.148054
0.152383
-0.141233
0.138009
-0.132079
0.123854
-0.119673
0.10911
-0.101259
0.0909438
-0.0718815
0.0634453
-0.0372285
0.0327238
-0.0086982
0.00756569
0.00765976
-0.00633511
0.0146133
-0.00997911
0.0169695
-0.00916368
0.0171791
-0.00698464
0.0162605
-0.00437754
0.0143336
-0.0018158
0.011731
0.00050278
0.00855935
0.00246631
0.00515141
0.00359908
0.00193886
0.00379696
0.00240762
0.0122104
0.962283
0.0163169
1.04814
0.0189658
1.0052
0.0197968
0.969055
0.0190214
0.928417
0.0171211
0.893263
0.0138699
0.857865
0.00888704
0.825343
0.00294735
0.793094
-0.00385121
0.76195
-0.0118429
0.731938
-0.0213149
0.702639
-0.0318774
0.673505
-0.0433308
0.64447
-0.0556761
0.615282
-0.068674
0.585685
-0.0820293
0.555625
-0.0953976
0.52502
-0.108457
0.493988
-0.12083
0.462581
-0.132368
0.430988
-0.142908
0.399518
-0.152021
0.368053
-0.160289
0.337642
-0.167753
0.30861
-0.17249
0.279714
-0.174603
0.252136
-0.174115
0.226619
-0.171182
0.202606
-0.167985
0.182018
-0.16399
0.163531
-0.157052
0.145446
-0.146142
0.127099
-0.130998
0.10871
-0.108616
0.0867285
-0.0747295
0.0570572
-0.0381769
0.0268927
-0.0111362
0.00568306
0.00361163
-0.00718213
0.00957215
-0.0122956
0.0119154
-0.0123224
0.0125859
-0.00983421
0.0122375
-0.0066362
0.0113558
-0.00349581
0.0100037
-0.000463726
0.00808874
0.00241773
0.00578975
0.0047653
0.00329465
0.00609418
0.0011227
0.00596892
0.00353031
0.0182807
0.944002
0.0226049
1.04382
0.0253179
1.00248
0.0256215
0.968751
0.0255921
0.928446
0.0238453
0.89501
0.0210136
0.860697
0.0173382
0.829019
0.0120219
0.798411
0.00493337
0.769038
-0.00339959
0.740271
-0.0128882
0.712127
-0.0236439
0.684261
-0.0356435
0.65647
-0.0487116
0.62835
-0.0626893
0.599663
-0.0773709
0.570306
-0.0923717
0.54002
-0.10733
0.508946
-0.121927
0.477178
-0.135797
0.444858
-0.148465
0.412186
-0.159706
0.379294
-0.168576
0.346512
-0.174301
0.314335
-0.178173
0.283586
-0.18037
0.254333
-0.181217
0.227466
-0.181906
0.203295
-0.179716
0.179828
-0.171981
0.155795
-0.159929
0.133394
-0.142302
0.109472
-0.114044
0.0804513
-0.0781985
0.0508832
-0.0451307
0.0239894
-0.0244847
0.00624674
-0.0149505
-0.00385117
-0.0120546
-0.010078
-0.01015
-0.0142003
-0.00735246
-0.0151199
-0.00420254
-0.0129841
-0.00181124
-0.0090275
-0.000317443
-0.00498961
0.000328568
-0.00110974
0.000490744
0.00225556
0.000243138
0.00501291
-0.000207422
0.00654474
-0.00039636
0.00615786
0.00313395
0.011638
0.932364
0.0186486
1.03681
0.0223721
0.998759
0.0254609
0.965663
0.0269906
0.926917
0.0273846
0.894616
0.0264861
0.861596
0.0238511
0.831654
0.0202621
0.802
0.0155693
0.773731
0.00914068
0.7467
0.000937272
0.720331
-0.00878986
0.693988
-0.019911
0.667591
-0.0325394
0.640978
-0.0465611
0.613684
-0.0616762
0.585421
-0.0775668
0.555911
-0.0935355
0.524915
-0.109266
0.492909
-0.124662
0.460254
-0.139052
0.426576
-0.152373
0.392615
-0.164489
0.358628
-0.175511
0.325357
-0.184168
0.292244
-0.190215
0.26038
-0.193252
0.230504
-0.192422
0.202465
-0.185698
0.173104
-0.173698
0.143795
-0.153226
0.112922
-0.120983
0.0772297
-0.0895724
0.0490406
-0.0655876
0.0268984
-0.0522773
0.0106792
-0.0453503
-0.000680318
-0.0399006
-0.0093009
-0.0343023
-0.0156763
-0.0287568
-0.0197458
-0.0229219
-0.0209548
-0.0170872
-0.0188188
-0.0118967
-0.014218
-0.00825217
-0.0086341
-0.00595253
-0.00340937
-0.00456203
0.000865059
-0.00345783
0.00390871
-0.0022334
0.0053203
-0.00101116
0.00493562
0.00212279
0.0164242
0.91594
0.0249278
1.0283
0.0267793
0.996908
0.0291318
0.96331
0.0309991
0.925049
0.0313596
0.894255
0.0309275
0.862028
0.0298591
0.832722
0.0269034
0.804955
0.0221674
0.778467
0.0161464
0.752721
0.00867232
0.727805
-0.000498793
0.703159
-0.0114273
0.678519
-0.0240005
0.653551
-0.0384321
0.628116
-0.0543354
0.601325
-0.0715156
0.573091
-0.0890602
0.542459
-0.10689
0.510739
-0.124758
0.478122
-0.141799
0.443617
-0.157684
0.4085
-0.172002
0.372946
-0.182548
0.335903
-0.190173
0.299868
-0.195889
0.266095
-0.197331
0.231945
-0.19314
0.198275
-0.182677
0.16264
-0.159546
0.120664
-0.131802
0.0851777
-0.107596
0.0530244
-0.0922135
0.0336576
-0.0807408
0.0154257
-0.0729813
0.00291968
-0.0650717
-0.00858992
-0.0579484
-0.0164241
-0.0509344
-0.0226903
-0.04445
-0.0262302
-0.0377233
-0.0276815
-0.0301678