/*--------------------------------*- C++ -*----------------------------------*\
| =========                 |                                                 |
| \\      /  F ield         | OpenFOAM: The Open Source CFD Toolbox           |
|  \\    /   O peration     | Version:  v1912                                 |
|   \\  /    A nd           | Website:  www.openfoam.com                      |
|    \\/     M anipulation  |                                                 |
\*---------------------------------------------------------------------------*/
FoamFile
{
    version     2.0;
    format      ascii;
    class       volVectorField;
    location    "0.25";
    object      U;
}
// * * * * * * * * * * * * * * * * * * * * * * * * * * * * * * * * * * * * * //

dimensions      [0 1 -1 0 0 0 0];


internalField   nonuniform List<vector> 
6600
(
(39.8461 -0.0384182 0)
(40.1028 -0.0528225 1.39714e-20)
(40.1837 0.0406454 9.83118e-19)
(40.2236 0.143914 0)
(40.2676 0.272587 1.20751e-18)
(40.3174 0.429705 4.11458e-20)
(40.377 0.610874 -4.56811e-20)
(40.4184 0.810429 -5.18757e-20)
(40.4394 1.03162 1.07331e-18)
(40.4661 1.24504 -1.32686e-19)
(40.4536 1.49077 0)
(40.4331 1.7462 -1.44263e-18)
(40.407 2.00568 0)
(40.3697 2.2776 -1.69918e-18)
(40.3109 2.56281 -2.41206e-18)
(40.2289 2.85753 -1.336e-18)
(40.1277 3.16695 0)
(40.0021 3.48651 0)
(39.8626 3.82168 2.45572e-18)
(39.7056 4.17115 -2.3901e-18)
(39.5343 4.53788 -3.56399e-19)
(39.3478 4.91776 -1.35161e-18)
(39.1359 5.30759 -2.6199e-18)
(38.9016 5.65816 6.24505e-19)
(38.7014 6.08229 2.268e-18)
(38.4235 6.54054 0)
(38.0853 6.98896 5.98818e-18)
(37.7769 7.47674 0)
(37.4543 8.02184 -3.26865e-18)
(37.0917 8.57531 -2.23715e-18)
(36.7305 9.15875 -2.80016e-19)
(36.3879 9.77254 -2.93497e-18)
(36.0143 10.428 -1.17346e-18)
(35.6147 11.1209 2.60583e-18)
(35.237 11.8444 2.8898e-19)
(34.8531 12.6317 3.31366e-18)
(34.4791 13.4741 6.0528e-18)
(34.136 14.3754 6.47511e-18)
(33.7937 15.3335 -4.86008e-18)
(33.4731 16.3646 5.33769e-18)
(33.1844 17.4649 2.95298e-18)
(32.9092 18.6276 0)
(32.6844 19.8625 -1.40249e-18)
(32.5342 21.2088 3.19567e-18)
(32.4455 22.6277 0)
(32.4176 24.1771 9.83868e-19)
(32.4146 25.6762 1.91296e-18)
(32.633 27.5984 0)
(31.015 28.0981 0)
(21.7166 20.8951 -1.82504e-19)
(39.7378 -0.0549934 8.20143e-19)
(40.1793 -0.0505651 -8.45688e-19)
(40.2404 0.0972464 0)
(40.2918 0.249085 -1.59898e-20)
(40.3329 0.413874 1.10996e-18)
(40.3756 0.595224 3.90771e-20)
(40.4262 0.770057 2.34707e-22)
(40.4691 0.963102 -4.85584e-20)
(40.5148 1.15431 0)
(40.5324 1.39945 -1.94168e-18)
(40.557 1.6252 -7.08521e-20)
(40.5772 1.87473 1.28106e-18)
(40.5762 2.14256 1.38862e-18)
(40.5632 2.42659 9.81947e-19)
(40.527 2.72629 -6.97898e-21)
(40.4691 3.03654 1.50234e-19)
(40.3952 3.36309 -1.40888e-18)
(40.2942 3.7008 0)
(40.1759 4.05415 0)
(40.0334 4.41977 2.47243e-18)
(39.8642 4.79991 3.65777e-19)
(39.6677 5.19408 -2.03441e-18)
(39.4538 5.61958 -1.9219e-18)
(39.2329 6.1339 -2.26431e-18)
(38.9269 6.58074 -1.95649e-18)
(38.638 7.03143 -7.84669e-19)
(38.3806 7.55525 -9.83609e-19)
(38.0704 8.06959 -1.07457e-18)
(37.7434 8.57846 3.3067e-18)
(37.4436 9.14507 2.51174e-19)
(37.1369 9.74475 -4.39593e-18)
(36.7873 10.37 4.0915e-18)
(36.4355 11.0238 3.27854e-18)
(36.1036 11.7247 -3.92588e-18)
(35.7584 12.4717 2.91274e-19)
(35.4226 13.2463 -3.38895e-18)
(35.1253 14.0775 3.35068e-18)
(34.8381 14.9615 -2.23291e-18)
(34.5774 15.9006 -2.02838e-18)
(34.3532 16.8966 -2.3107e-18)
(34.1555 17.9533 0)
(34.0019 19.0775 0)
(33.9015 20.2567 -1.12029e-18)
(33.8611 21.5158 1.17474e-18)
(33.9116 22.8376 1.91342e-18)
(34.0413 24.2766 -1.01581e-18)
(34.2139 25.6879 -7.67907e-19)
(34.4912 27.3317 0)
(32.7307 27.3932 -1.26145e-18)
(22.2444 19.6621 3.21746e-19)
(39.6701 -0.0105769 -5.57605e-20)
(40.3135 -0.065132 8.63091e-19)
(40.3658 0.103083 8.60257e-19)
(40.4368 0.249062 -3.16812e-22)
(40.4948 0.429563 -1.35242e-19)
(40.5629 0.632714 3.665e-20)
(40.6332 0.866474 0)
(40.6816 1.10383 0)
(40.7045 1.36763 0)
(40.7466 1.61034 1.03304e-18)
(40.7372 1.89733 -6.62181e-20)
(40.722 2.18906 -1.2896e-18)
(40.7055 2.48342 -7.10597e-19)
(40.6751 2.79198 1.58412e-18)
(40.6234 3.11356 9.55511e-19)
(40.5495 3.44514 -1.50451e-19)
(40.4558 3.79169 2.92019e-18)
(40.34 4.14949 -1.57619e-18)
(40.2115 4.52401 -1.86719e-18)
(40.0672 4.9137 0)
(39.9118 5.32089 -1.30978e-18)
(39.7422 5.74116 1.64606e-18)
(39.5406 6.15177 1.9449e-18)
(39.338 6.53813 2.29284e-18)
(39.1731 7.01285 2.02531e-18)
(38.9166 7.51082 -3.41322e-19)
(38.6092 7.99197 -4.37607e-19)
(38.3469 8.52245 -1.4783e-18)
(38.0702 9.09956 -5.93081e-19)
(37.7565 9.67948 2.19325e-18)
(37.452 10.286 7.90521e-19)
(37.1811 10.9205 0)
(36.8832 11.5906 -4.16936e-18)
(36.568 12.2862 1.18168e-18)
(36.2903 13.0074 2.63574e-18)
(36.0181 13.7886 4.20043e-18)
(35.768 14.6089 -1.84183e-18)
(35.5656 15.4739 -1.75967e-18)
(35.3787 16.3816 3.22169e-19)
(35.2319 17.3451 0)
(35.1388 18.3566 -1.75512e-18)
(35.0865 19.4115 0)
(35.1083 20.5123 0)
(35.2327 21.6941 -1.59211e-18)
(35.4456 22.9194 -8.07587e-19)
(35.734 24.2341 8.57802e-21)
(36.0981 25.597 8.98117e-20)
(36.3914 26.8664 0)
(34.2715 26.4709 -1.00017e-18)
(22.348 18.0836 1.09117e-18)
(39.6228 -0.00209982 -7.69917e-19)
(40.4554 -0.0126081 5.84937e-21)
(40.4841 0.230431 -8.8368e-19)
(40.5525 0.394927 -8.2366e-19)
(40.6052 0.602567 -1.00242e-18)
(40.653 0.819558 -4.85768e-19)
(40.716 1.02785 -3.70414e-20)
(40.7666 1.25635 0)
(40.8153 1.48857 7.09894e-19)
(40.8382 1.76269 8.67187e-19)
(40.8665 2.02367 -6.08686e-20)
(40.8916 2.30601 -7.3601e-20)
(40.8913 2.60773 -6.16636e-19)
(40.8817 2.92402 -1.70138e-19)
(40.8501 3.25532 3.51185e-20)
(40.7963 3.59822 -1.41257e-19)
(40.7273 3.95763 5.75543e-20)
(40.6323 4.329 1.7862e-18)
(40.5215 4.71668 2.53582e-18)
(40.3883 5.11733 0)
(40.2294 5.53159 8.99008e-20)
(40.0477 5.95864 0)
(39.8593 6.4333 0)
(39.6485 6.97916 -5.42716e-19)
(39.3642 7.4515 1.79601e-18)
(39.1161 7.92822 1.87412e-18)
(38.8963 8.48117 -4.13927e-19)
(38.6234 9.02287 2.04124e-18)
(38.3448 9.55952 0)
(38.105 10.1484 0)
(37.8628 10.7684 1.42003e-18)
(37.581 11.4095 0)
(37.3152 12.072 1.05908e-18)
(37.08 12.7753 2.14101e-18)
(36.8389 13.5164 -3.72452e-18)
(36.625 14.2722 -4.08342e-18)
(36.4631 15.0752 4.10486e-18)
(36.3198 15.9143 -1.5347e-18)
(36.2232 16.7931 2.34318e-19)
(36.18 17.7088 2.71696e-19)
(36.1802 18.66 3.12734e-18)
(36.2469 19.6539 0)
(36.3861 20.6801 0)
(36.5978 21.7477 6.23352e-19)
(36.9134 22.841 -5.42971e-20)
(37.317 24.0119 -4.85155e-19)
(37.7647 25.2206 -1.0758e-18)
(37.9066 26.1678 1.18787e-18)
(35.2429 25.205 2.36847e-18)
(21.904 16.1813 0)
(39.6028 0.0458938 -2.4583e-21)
(40.6398 -0.00185264 6.26971e-19)
(40.6786 0.260841 6.79048e-19)
(40.759 0.405155 8.53904e-19)
(40.8378 0.628613 0)
(40.9135 0.881937 6.77592e-20)
(40.9794 1.1483 0)
(41.0289 1.42774 -3.72833e-20)
(41.0546 1.71371 -1.29172e-18)
(41.0956 1.99624 -8.65813e-19)
(41.0913 2.31509 5.45659e-20)
(41.0778 2.6402 6.65989e-20)
(41.0617 2.96802 -7.41092e-20)
(41.0327 3.30901 -7.54055e-19)
(40.983 3.66282 -1.79711e-18)
(40.911 4.0271 1.22097e-19)
(40.8206 4.40648 -2.38124e-18)
(40.7099 4.79745 1.84295e-19)
(40.588 5.20436 -8.6889e-19)
(40.454 5.62585 -5.04326e-19)
(40.3156 6.06511 1.5338e-18)
(40.1638 6.5149 0)
(39.9701 6.9227 0)
(39.7992 7.33627 -9.37633e-19)
(39.6637 7.84963 -1.20611e-18)
(39.4309 8.38321 1.63077e-18)
(39.1561 8.88678 -3.85615e-19)
(38.9422 9.43828 0)
(38.7197 10.0354 5.32746e-19)
(38.4618 10.6323 -5.93406e-19)
(38.2219 11.2473 -1.44324e-18)
(38.0314 11.8858 -2.21592e-18)
(37.8205 12.5556 8.61338e-19)
(37.6008 13.2396 -9.48664e-19)
(37.4338 13.9391 1.05561e-18)
(37.2852 14.6924 0)
(37.1689 15.4688 -1.32109e-18)
(37.1158 16.2746 -2.29081e-18)
(37.0904 17.1035 1.32172e-18)
(37.1183 17.9678 1.4284e-18)
(37.2143 18.8545 -1.35982e-18)
(37.3608 19.7562 0)
(37.5892 20.6747 0)
(37.9315 21.6383 -9.3088e-20)
(38.3673 22.6124 1.59046e-19)
(38.8651 23.6349 2.58519e-20)
(39.3702 24.7514 8.39601e-19)
(39.3321 25.2691 -1.77207e-18)
(35.8618 23.7508 3.10426e-19)
(20.8509 13.9979 -3.61342e-18)
(39.6232 0.0665992 5.37782e-19)
(40.8313 0.0569066 -1.02909e-19)
(40.8669 0.409664 -6.92641e-19)
(40.9378 0.562851 3.02008e-19)
(40.9946 0.834564 0)
(41.0408 1.07567 4.50939e-19)
(41.1046 1.31298 -1.39552e-20)
(41.1674 1.57374 -4.49507e-19)
(41.2126 1.85704 6.22644e-19)
(41.2368 2.15136 0)
(41.2697 2.44227 4.92675e-20)
(41.2952 2.7548 3.52653e-19)
(41.2989 3.0871 -5.51816e-19)
(41.2946 3.43305 7.64363e-20)
(41.2679 3.79434 8.99511e-19)
(41.2204 4.16741 -1.08408e-19)
(41.1582 4.55629 7.82497e-19)
(41.0713 4.95767 -1.54826e-19)
(40.9708 5.37501 1.9813e-19)
(40.8491 5.80543 6.28245e-19)
(40.7008 6.25158 8.71988e-19)
(40.5343 6.71067 -9.83448e-21)
(40.3803 7.25059 3.81903e-19)
(40.1844 7.81899 1.5696e-18)
(39.9212 8.30078 0)
(39.7118 8.79005 -1.30007e-18)
(39.5361 9.36247 3.64079e-19)
(39.3018 9.92041 1.30567e-20)
(39.0716 10.4665 -6.55263e-20)
(38.8958 11.0588 5.33714e-19)
(38.7234 11.679 -1.12429e-18)
(38.513 12.3134 1.46561e-18)
(38.3324 12.9589 0)
(38.1958 13.6377 0)
(38.0608 14.3459 0)
(37.967 15.0531 0)
(37.9382 15.795 -1.30773e-18)
(37.9316 16.554 2.46604e-18)
(37.9846 17.3338 0)
(38.1007 18.1282 3.64218e-20)
(38.2623 18.9305 -1.75796e-19)
(38.4966 19.749 1.681e-19)
(38.8105 20.577 -1.05679e-19)
(39.1909 21.4076 0)
(39.6611 22.2308 4.5188e-19)
(40.2096 23.1435 -1.84578e-18)
(40.6152 23.9417 1.33458e-18)
(40.1872 24.1752 1.39609e-18)
(35.6379 21.9387 5.45364e-18)
(19.0263 11.5367 -4.12755e-18)
(39.6831 0.0935019 -5.37026e-19)
(41.063 0.0500019 -9.39109e-19)
(41.1176 0.451226 7.82763e-21)
(41.2177 0.584247 -3.03372e-19)
(41.2877 0.875273 2.37925e-19)
(41.374 1.15145 -9.93672e-21)
(41.4392 1.45261 3.09807e-19)
(41.4841 1.76709 4.51306e-19)
(41.5202 2.08251 4.01805e-19)
(41.5663 2.40598 -1.61982e-20)
(41.5755 2.76482 -2.66194e-19)
(41.5661 3.12667 -9.23166e-20)
(41.5582 3.48869 4.85753e-19)
(41.5354 3.86523 0)
(41.4927 4.25435 0)
(41.4286 4.65412 4.94213e-20)
(41.3473 5.06816 8.51122e-19)
(41.2479 5.49292 0)
(41.1378 5.93201 8.58671e-20)
(41.0184 6.38301 -9.5158e-19)
(40.9003 6.84804 -8.98305e-19)
(40.7695 7.31876 3.7752e-19)
(40.5795 7.71053 0)
(40.4402 8.14925 -8.49145e-19)
(40.3356 8.69436 -2.37552e-19)
(40.1275 9.25298 2.64995e-19)
(39.8865 9.76595 0)
(39.7235 10.3195 0)
(39.5574 10.9182 -5.5721e-19)
(39.355 11.5123 -3.82287e-19)
(39.1767 12.1131 1.66149e-18)
(39.0608 12.7285 -5.81042e-19)
(38.9343 13.3703 -6.21382e-19)
(38.8032 14.0142 1.35434e-18)
(38.7376 14.6586 -1.70367e-18)
(38.7013 15.3479 -2.42905e-19)
(38.6994 16.0417 8.62066e-19)
(38.7696 16.7485 -8.43847e-19)
(38.8725 17.457 4.72954e-19)
(39.0264 18.1792 4.75726e-20)
(39.2504 18.9008 -2.1639e-19)
(39.5232 19.614 -7.46372e-20)
(39.8684 20.314 4.1377e-19)
(40.3233 21.0252 -4.59632e-19)
(40.8629 21.7347 4.20049e-19)
(41.4576 22.5641 0)
(41.6767 23.0176 9.89616e-19)
(40.779 22.9175 1.88208e-18)
(34.8752 19.9478 -3.67644e-18)
(16.3773 8.88284 -1.17592e-18)
(39.7721 0.120949 3.18934e-19)
(41.3211 0.101728 4.10329e-19)
(41.3661 0.595866 3.01276e-21)
(41.4514 0.742778 -1.45812e-19)
(41.5021 1.07512 -4.02153e-19)
(41.5529 1.34448 1.72427e-19)
(41.6267 1.6121 -4.89939e-19)
(41.7013 1.91084 1.03611e-19)
(41.7433 2.22838 -3.88732e-19)
(41.7745 2.55941 -1.55284e-19)
(41.8113 2.87629 4.68058e-19)
(41.8443 3.21915 -3.52452e-19)
(41.858 3.58404 -2.61409e-19)
(41.8652 3.96114 -2.25772e-21)
(41.85 4.35438 -1.69914e-19)
(41.8158 4.75909 2.46304e-19)
(41.7676 5.1788 -4.10659e-19)
(41.6957 5.61126 0)
(41.6114 6.05821 0)
(41.5057 6.51749 0)
(41.3709 6.99285 -1.01395e-19)
(41.218 7.48084 -4.05605e-19)
(41.1051 8.0834 -3.46987e-19)
(40.9295 8.66823 -1.60541e-19)
(40.6875 9.14929 0)
(40.5137 9.63776 0)
(40.3833 10.2156 4.64491e-19)
(40.1893 10.778 -3.03759e-19)
(40.0042 11.3164 -7.68373e-20)
(39.8883 11.8898 9.06162e-20)
(39.7827 12.4859 5.9356e-21)
(39.6379 13.0889 -3.33658e-19)
(39.5264 13.6872 2.42065e-19)
(39.474 14.3072 -7.10046e-19)
(39.427 14.9508 6.31751e-19)
(39.4261 15.5753 3.97697e-19)
(39.4984 16.219 1.16922e-19)
(39.5865 16.8597 -2.07784e-19)
(39.7339 17.5049 -3.1906e-19)
(39.9455 18.144 -9.8465e-20)
(40.1927 18.7674 -1.95379e-19)
(40.507 19.3847 3.85936e-19)
(40.9029 19.9968 -4.29264e-19)
(41.35 20.5851 0)
(41.861 21.161 0)
(42.3553 21.7784 0)
(42.3387 21.954 0)
(40.5851 21.4099 0)
(32.8886 17.5331 -2.17725e-18)
(12.7553 6.03854 3.58428e-18)
(39.8901 0.163133 -3.22359e-19)
(41.6198 0.0952014 0)
(41.6931 0.62507 0)
(41.7939 0.75482 1.47703e-19)
(41.8766 1.12224 1.52988e-19)
(41.9586 1.42014 -1.69408e-19)
(42.0279 1.76408 1.86779e-19)
(42.0773 2.09523 -1.03941e-19)
(42.1248 2.44711 3.63168e-20)
(42.1815 2.80561 1.50194e-19)
(42.2155 3.2069 -1.72433e-19)
(42.2213 3.60675 7.82974e-20)
(42.2266 4.00651 3.20016e-19)
(42.2181 4.42057 0)
(42.1898 4.84679 1.99883e-19)
(42.1406 5.28314 -2.73907e-19)
(42.0748 5.73302 -3.64525e-21)
(41.9915 6.19195 -2.3972e-19)
(41.898 6.6628 3.4546e-19)
(41.7968 7.14194 0)
(41.6995 7.62931 0)
(41.5876 8.10904 2.89229e-19)
(41.4079 8.49644 1.42535e-19)
(41.2933 8.94635 -4.23644e-19)
(41.2166 9.5111 -1.5459e-19)
(41.0367 10.0879 4.68482e-19)
(40.8268 10.5971 -8.11886e-19)
(40.7075 11.1312 6.26627e-19)
(40.5948 11.7126 -3.93679e-19)
(40.4422 12.2856 2.91729e-19)
(40.3107 12.8503 -1.61805e-19)
(40.2509 13.416 6.48021e-19)
(40.194 14.0036 -9.9297e-20)
(40.1277 14.5821 4.46041e-19)
(40.1335 15.1414 0)
(40.176 15.7358 1.31217e-19)
(40.2413 16.317 2.2176e-19)
(40.3786 16.8974 1.11163e-19)
(40.5494 17.4608 1.76465e-19)
(40.7559 18.0187 -7.24079e-20)
(41.0275 18.5602 -1.69369e-19)
(41.3447 19.0804 -5.82705e-19)
(41.7138 19.563 1.51734e-18)
(42.1767 20.0356 2.65358e-19)
(42.7658 20.5963 3.08802e-19)
(43.0106 20.863 -7.93895e-19)
(42.6753 20.7902 0)
(39.845 19.6341 1.87719e-18)
(30.1316 14.822 -1.00103e-18)
(8.16063 3.00712 0)
(40.0462 0.189491 2.83284e-22)
(41.9537 0.158097 -1.51802e-22)
(42.0004 0.746439 2.96881e-20)
(42.096 0.899593 0)
(42.1344 1.29859 1.56439e-22)
(42.2059 1.59491 4.19732e-20)
(42.2923 1.88829 0)
(42.3763 2.23762 -5.50678e-20)
(42.4283 2.5837 -3.60598e-20)
(42.4652 2.94201 -4.0446e-22)
(42.5107 3.28053 -5.94817e-20)
(42.5578 3.65493 -1.12777e-19)
(42.5894 4.05167 -6.15944e-20)
(42.6154 4.46089 0)
(42.6175 4.88741 0)
(42.6023 5.32453 0)
(42.5721 5.77631 -2.73672e-20)
(42.5199 6.24036 2.40414e-19)
(42.4545 6.7172 -3.84689e-19)
(42.3668 7.20523 3.76931e-20)
(42.2489 7.70819 -8.99668e-20)
(42.1181 8.2368 -2.37562e-19)
(42.0324 8.8706 5.51189e-19)
(41.8829 9.47331 5.49792e-19)
(41.6573 9.94777 0)
(41.5062 10.4164 -3.59725e-19)
(41.4178 10.9829 6.25398e-19)
(41.2615 11.5399 -4.75329e-19)
(41.1057 12.0546 1.78052e-19)
(41.0314 12.5872 -9.90194e-20)
(40.9782 13.1373 1.0059e-19)
(40.8805 13.6893 -2.64368e-19)
(40.8076 14.2186 3.84642e-19)
(40.8092 14.7541 -2.25202e-19)
(40.8155 15.3125 -6.27461e-20)
(40.8603 15.8354 9.71134e-20)
(40.983 16.3622 1.75382e-20)
(41.1093 16.8681 -1.00748e-19)
(41.282 17.3672 2.89679e-20)
(41.5186 17.8454 0)
(41.7777 18.2924 3.63175e-19)
(42.0894 18.7148 3.71499e-19)
(42.4849 19.1276 1.00834e-19)
(42.9449 19.5489 -1.22489e-18)
(43.3291 19.8568 -7.53867e-20)
(43.3535 19.8999 -1.02386e-18)
(42.357 19.4642 0)
(37.9556 17.4632 1.87598e-18)
(25.866 11.487 -3.18411e-18)
(4.75592 0.894712 0)
(40.2673 0.259931 0)
(42.3241 0.159416 0)
(42.4039 0.76356 3.66932e-20)
(42.508 0.897878 3.34176e-21)
(42.5923 1.32376 -1.01016e-19)
(42.6752 1.64676 -4.22322e-20)
(42.7487 2.0204 0)
(42.8208 2.37604 5.51939e-20)
(42.8809 2.75481 -1.65915e-19)
(42.9572 3.1481 0)
(43.0274 3.59089 1.5912e-19)
(43.0552 4.0266 -7.97774e-20)
(43.0827 4.46206 7.50668e-21)
(43.0939 4.91619 -8.36806e-21)
(43.0858 5.37973 0)
(43.056 5.85382 0)
(43.0095 6.33999 9.92981e-20)
(42.9432 6.83373 -5.00573e-20)
(42.8662 7.33605 1.0229e-19)
(42.7814 7.84288 4.78401e-21)
(42.6988 8.35062 -1.3177e-20)
(42.5968 8.83039 8.75665e-21)
(42.4342 9.22592 -1.97858e-19)
(42.3279 9.6699 -1.03163e-19)
(42.272 10.2377 1.80149e-20)
(42.1214 10.8301 5.6489e-20)
(41.928 11.3284 -1.76143e-19)
(41.829 11.8211 -8.22089e-20)
(41.757 12.3673 0)
(41.639 12.9054 0)
(41.5254 13.4193 0)
(41.4883 13.9157 1.53387e-19)
(41.4731 14.4311 2.55613e-20)
(41.4364 14.9335 8.93632e-20)
(41.4705 15.395 4.8703e-20)
(41.549 15.883 9.08452e-20)
(41.6278 16.3448 3.4799e-20)
(41.7711 16.7971 1.80037e-19)
(41.9521 17.2185 -1.19256e-19)
(42.1457 17.6192 -2.28418e-19)
(42.3943 17.9934 -3.20485e-19)
(42.693 18.3467 3.5733e-19)
(43.0282 18.6644 0)
(43.4732 18.9958 6.94529e-19)
(43.6136 19.0812 -3.78631e-19)
(43.329 18.9211 5.52018e-19)
(41.3195 17.935 0)
(34.9679 14.8994 -8.16668e-19)
(20.7816 7.86448 4.71117e-19)
(2.49103 -0.0289295 0)
(40.4966 0.252247 -8.81362e-20)
(42.7167 0.216188 0)
(42.7719 0.869733 -1.93815e-19)
(42.8543 1.01853 1.49005e-19)
(42.8952 1.46113 9.91903e-20)
(42.9831 1.76101 -4.86486e-21)
(43.0905 2.0935 5.41419e-21)
(43.1878 2.46595 0)
(43.2616 2.84669 1.59289e-19)
(43.3248 3.23471 -1.51096e-19)
(43.3739 3.60044 -9.97107e-20)
(43.4469 3.99923 1.16267e-19)
(43.5014 4.43054 -1.07715e-19)
(43.5506 4.872 -2.15571e-20)
(43.5762 5.33226 1.17417e-20)
(43.5827 5.80395 0)
(43.5723 6.29011 -6.82739e-20)
(43.5406 6.78672 6.45091e-20)
(43.4948 7.29451 1.01325e-19)
(43.4243 7.81221 2.00005e-21)
(43.3222 8.34205 1.17984e-20)
(43.2059 8.90115 0)
(43.1345 9.55389 6.59496e-21)
(43.0068 10.1788 6.97656e-20)
(42.7811 10.65 -4.13806e-20)
(42.6299 11.0846 -5.67912e-20)
(42.5689 11.6219 0)
(42.4401 12.1702 4.20097e-20)
(42.2852 12.6524 -4.49757e-20)
(42.2174 13.129 3.28424e-21)
(42.1893 13.6165 -7.23663e-20)
(42.1129 14.1089 -4.7315e-20)
(42.0407 14.5635 8.69136e-20)
(42.0581 15.0042 -2.38069e-20)
(42.0818 15.4741 -4.91214e-20)
(42.1216 15.8962 4.78365e-21)
(42.2433 16.3102 -6.22968e-20)
(42.3623 16.6905 0)
(42.5018 17.0573 -2.10717e-19)
(42.7045 17.3948 4.61142e-19)
(42.9248 17.6975 3.24854e-19)
(43.1768 17.9659 -4.06226e-19)
(43.5827 18.2867 5.68883e-19)
(43.7479 18.4008 -2.98732e-19)
(43.6755 18.3517 8.86798e-19)
(42.6809 17.8409 -2.39404e-20)
(39.1388 16.2146 0)
(30.2478 12.1586 1.62655e-18)
(12.8469 4.08707 -1.36246e-18)
(0.453521 -0.193754 -4.68134e-19)
(40.7881 0.310807 8.82087e-20)
(43.1397 0.198841 -1.66219e-19)
(43.2238 0.844741 1.24613e-19)
(43.3184 0.964148 -1.46281e-19)
(43.4067 1.4434 -1.22989e-19)
(43.5119 1.76363 -7.40201e-21)
(43.5998 2.15751 4.17215e-21)
(43.6951 2.53787 0)
(43.7887 2.93967 -1.9506e-19)
(43.8848 3.36362 2.63204e-19)
(44.0034 3.83847 0)
(44.0705 4.31786 -1.50875e-20)
(44.1259 4.79339 -2.21846e-20)
(44.168 5.2851 1.62527e-19)
(44.1834 5.79077 -2.1977e-19)
(44.1761 6.30592 6.65258e-22)
(44.1494 6.83147 2.40757e-20)
(44.1002 7.36339 0)
(44.0348 7.90136 -1.69021e-20)
(43.958 8.43823 1.63023e-19)
(43.8777 8.96844 -1.53295e-20)
(43.7819 9.4635 0)
(43.6237 9.86988 0)
(43.5031 10.2943 1.58989e-20)
(43.4513 10.8477 1.61982e-20)
(43.3189 11.4529 -1.39164e-19)
(43.119 11.9441 3.72425e-20)
(43.002 12.3838 -2.03561e-20)
(42.9448 12.8816 2.15984e-20)
(42.8407 13.3779 2.54216e-20)
(42.7108 13.839 1.50303e-20)
(42.6536 14.2601 -1.35395e-19)
(42.6481 14.6948 1.07902e-19)
(42.6088 15.1263 -7.90123e-20)
(42.6256 15.4962 -8.9679e-20)
(42.7028 15.8843 -7.59179e-20)
(42.7554 16.2389 0)
(42.852 16.5822 2.96248e-19)
(43.0008 16.8872 -1.09246e-19)
(43.1411 17.163 -2.77784e-19)
(43.317 17.4077 3.52451e-19)
(43.6203 17.7005 -1.57715e-20)
(43.7649 17.8322 -2.78558e-19)
(43.7689 17.8436 -1.53037e-20)
(43.2569 17.5976 -4.44521e-19)
(41.1756 16.6737 -1.0827e-18)
(35.5098 14.2026 6.03188e-19)
(23.3172 8.90906 0)
(5.9227 1.59212 -8.09698e-19)
(-0.815897 -0.143497 1.57093e-18)
(41.079 0.27017 3.35347e-22)
(43.5584 0.225567 1.67026e-19)
(43.6149 0.914834 -6.10554e-20)
(43.7105 1.03774 -1.93636e-21)
(43.7506 1.51034 1.23158e-19)
(43.8614 1.81043 0)
(43.9925 2.16172 0)
(44.1233 2.55702 -6.65504e-21)
(44.2289 2.95743 3.50661e-19)
(44.3278 3.37124 -1.16322e-19)
(44.393 3.75932 9.60053e-21)
(44.4967 4.18619 -2.14565e-20)
(44.5853 4.65001 7.56481e-20)
(44.6641 5.12997 -6.94979e-20)
(44.7173 5.62831 3.39816e-19)
(44.7499 6.13881 -7.75618e-20)
(44.7623 6.66445 8.56868e-20)
(44.7491 7.20074 1.94699e-20)
(44.72 7.74513 -1.82597e-19)
(44.662 8.29783 -1.03301e-19)
(44.571 8.85738 -1.03685e-21)
(44.4526 9.43777 -2.72492e-20)
(44.3808 10.1094 0)
(44.2595 10.7695 -7.86795e-20)
(44.01 11.2538 -7.72734e-22)
(43.8289 11.6563 -1.68707e-20)
(43.7654 12.1501 1.89382e-20)
(43.6464 12.686 5.05267e-20)
(43.4638 13.1412 0)
(43.3563 13.5591 2.52414e-20)
(43.316 13.9748 1.29287e-19)
(43.2375 14.4056 1.05223e-19)
(43.1327 14.797 -3.58499e-20)
(43.1272 15.1468 1.29013e-19)
(43.1434 15.5357 -1.20615e-19)
(43.1386 15.8715 -7.83556e-20)
(43.2138 16.1927 0)
(43.302 16.4735 -1.99398e-19)
(43.3743 16.7379 -1.40622e-19)
(43.5024 16.9731 1.57069e-19)
(43.6998 17.2191 -1.89445e-19)
(43.849 17.4022 2.2071e-19)
(43.8818 17.4374 0)
(43.6048 17.3526 1.76296e-19)
(42.2627 16.8138 0)
(38.4085 15.1923 2.53376e-19)
(29.5794 11.4882 -5.72255e-19)
(13.9184 4.84229 3.2155e-19)
(1.97016 0.546442 0)
(-1.39298 -0.128803 9.44868e-20)
(41.3729 0.294338 5.51529e-23)
(43.9872 0.171352 6.31101e-23)
(44.0803 0.823054 6.26741e-20)
(44.1771 0.91866 3.19412e-22)
(44.2903 1.4118 2.83268e-21)
(44.4183 1.71921 4.13841e-22)
(44.5377 2.13039 -4.60645e-22)
(44.6683 2.51877 1.07392e-21)
(44.7987 2.9397 -1.38403e-19)
(44.9373 3.37971 -3.08098e-21)
(45.1056 3.88535 -1.57223e-21)
(45.2403 4.40521 3.52622e-21)
(45.3379 4.92258 1.09882e-19)
(45.419 5.4588 -1.2532e-19)
(45.4672 6.01208 -1.47998e-19)
(45.4894 6.57609 7.76202e-20)
(45.4843 7.15221 -8.26358e-20)
(45.4514 7.73251 -3.92973e-21)
(45.3942 8.31737 -4.33212e-21)
(45.3164 8.89644 0)
(45.2233 9.46355 -5.18899e-21)
(45.1182 9.99335 -2.38272e-21)
(44.9472 10.4263 2.66335e-21)
(44.7812 10.829 0)
(44.709 11.3578 0)
(44.5803 11.9766 8.2827e-20)
(44.3503 12.4773 0)
(44.1702 12.8751 -5.05917e-20)
(44.0834 13.3145 0)
(43.9721 13.7657 2.62893e-21)
(43.7983 14.1836 -7.44751e-20)
(43.6778 14.5384 5.73745e-21)
(43.6519 14.888 -9.9201e-20)
(43.5927 15.2604 9.67172e-21)
(43.5519 15.5555 5.58374e-20)
(43.5972 15.859 8.89368e-20)
(43.6133 16.1285 -3.39086e-21)
(43.6301 16.3904 0)
(43.7206 16.6158 -2.38148e-21)
(43.8277 16.8351 2.77373e-21)
(43.9417 17.0539 0)
(43.98 17.1177 -3.7029e-21)
(43.7647 17.1003 -1.91285e-20)
(42.8336 16.779 -1.55441e-19)
(40.0826 15.6582 -3.15216e-21)
(33.5132 12.9845 0)
(21.1679 7.90212 0)
(5.65278 1.86466 4.2657e-20)
(-0.656247 0.159305 -4.24124e-20)
(-1.61783 -0.121848 9.77362e-20)
(41.666 0.210173 1.52605e-19)
(44.3857 0.173302 1.69484e-19)
(44.4649 0.821466 9.35983e-20)
(44.5608 0.921172 1.09565e-19)
(44.635 1.3846 1.15624e-19)
(44.7724 1.66256 -1.35916e-19)
(44.9408 2.02123 0)
(45.1173 2.42517 0)
(45.2752 2.83721 1.0484e-19)
(45.4227 3.27664 3.0806e-21)
(45.5375 3.69216 -1.29283e-19)
(45.6673 4.13938 -8.7609e-21)
(45.8006 4.64322 -1.67597e-19)
(45.9232 5.16481 1.90137e-19)
(46.0169 5.70759 2.33143e-19)
(46.0826 6.2694 0)
(46.1229 6.84636 0)
(46.1314 7.43561 3.9288e-21)
(46.1163 8.03206 4.33103e-21)
(46.0663 8.63504 -1.94633e-19)
(45.9792 9.2388 5.18645e-21)
(45.8482 9.84909 0)
(45.7501 10.5431 0)
(45.6212 11.2609 -2.95876e-20)
(45.3298 11.796 -1.45876e-19)
(45.0774 12.1869 3.94065e-20)
(44.9658 12.6323 0)
(44.8304 13.1484 -9.09586e-20)
(44.6039 13.5939 0)
(44.4062 13.9653 -2.62797e-21)
(44.3066 14.3056 0)
(44.2109 14.67 0)
(44.0553 15.0175 3.28043e-20)
(43.9868 15.2875 4.06031e-20)
(43.9831 15.6015 0)
(43.9239 15.8685 0)
(43.916 16.1212 3.3889e-21)
(43.971 16.3327 0)
(44.0017 16.5403 2.34728e-21)
(44.0784 16.7815 -9.08621e-20)
(44.116 16.8626 1.04543e-19)
(43.9335 16.8764 9.61975e-21)
(43.268 16.6913 6.29258e-21)
(41.2489 15.9082 -1.69137e-19)
(36.1297 13.9051 -9.96783e-20)
(25.9975 9.8506 5.64541e-19)
(9.9519 3.5654 -2.53994e-19)
(1.15369 0.739415 -2.93527e-19)
(-1.8563 0.0640041 2.40998e-19)
(-1.53459 -0.0201126 0)
(41.8504 0.191593 -1.51997e-19)
(44.7604 0.0871086 2.20499e-19)
(44.8837 0.653969 -9.17308e-20)
(44.9935 0.717969 1.4212e-19)
(45.1335 1.19318 -1.22306e-19)
(45.312 1.45821 1.39798e-19)
(45.4796 1.86954 1.10029e-20)
(45.6643 2.25405 -1.22505e-20)
(45.8528 2.67762 -9.03076e-20)
(46.0505 3.1302 -1.6115e-20)
(46.2842 3.66215 1.37046e-19)
(46.4836 4.21146 3.72327e-19)
(46.6523 4.76773 -2.47626e-19)
(46.8035 5.35784 -1.73368e-19)
(46.9034 5.97205 -8.07473e-19)
(46.968 6.59941 3.53519e-20)
(46.9954 7.24285 -3.94555e-20)
(46.9849 7.892 3.89879e-19)
(46.9388 8.54603 4.87018e-20)
(46.8546 9.19313 1.39988e-19)
(46.7394 9.82353 0)
(46.6013 10.4163 0)
(46.4066 10.916 0)
(46.158 11.3177 0)
(46.0227 11.8138 1.46888e-19)
(45.8867 12.4511 -3.90744e-19)
(45.6115 12.9936 0)
(45.3256 13.3832 3.13257e-19)
(45.1452 13.7634 0)
(45 14.1605 0)
(44.7706 14.5452 -2.72984e-19)
(44.5487 14.8548 1.36686e-19)
(44.4668 15.1143 -3.0452e-19)
(44.3907 15.4285 9.0391e-20)
(44.2708 15.6635 0)
(44.2494 15.8936 0)
(44.2531 16.093 1.267e-19)
(44.2105 16.3002 -4.33446e-19)
(44.2651 16.5499 0)
(44.2942 16.6428 -2.80532e-19)
(44.1077 16.6734 4.35701e-19)
(43.5703 16.566 -5.02685e-19)
(41.9961 16.0111 2.91708e-19)
(37.7918 14.4291 -3.44033e-19)
(29.1221 11.0073 8.68769e-19)
(14.4797 5.32553 -7.61955e-19)
(3.16309 1.42964 4.95377e-19)
(-1.24188 0.38369 -1.10677e-18)
(-2.29256 0.10799 1.31469e-18)
(-1.37407 0.0629535 -8.42814e-19)
(42.0842 0.132652 -3.98074e-19)
(45.0671 0.0499321 4.69535e-20)
(45.1813 0.59827 0)
(45.3083 0.634328 -2.49881e-19)
(45.414 1.06623 -6.59109e-19)
(45.6085 1.29335 2.13882e-20)
(45.834 1.64026 0)
(46.075 2.02724 0)
(46.3039 2.43035 -3.36372e-20)
(46.5247 2.88079 3.74705e-20)
(46.7147 3.31838 -7.51491e-19)
(46.9054 3.79851 4.93248e-19)
(47.0974 4.33524 4.24872e-19)
(47.2751 4.8991 -5.67633e-19)
(47.4284 5.49923 5.48407e-19)
(47.5461 6.1265 8.4786e-20)
(47.6296 6.7734 -9.22284e-19)
(47.6704 7.43875 -1.31821e-18)
(47.674 8.114 0)
(47.6349 8.79281 5.75284e-19)
(47.5464 9.47146 6.34182e-19)
(47.4043 10.1437 0)
(47.2543 10.8727 -7.56336e-19)
(47.1002 11.6697 0)
(46.7744 12.3217 0)
(46.4085 12.7523 3.89517e-19)
(46.18 13.1549 2.76371e-19)
(45.9869 13.6441 5.54692e-19)
(45.7086 14.0946 0)
(45.3797 14.4487 0)
(45.1574 14.7191 1.28389e-19)
(45.0276 14.996 1.60437e-19)
(44.8274 15.3058 5.29704e-19)
(44.6521 15.5057 -2.3043e-21)
(44.605 15.7358 -2.20844e-22)
(44.5304 15.9355 -4.6944e-19)
(44.4369 16.1351 -5.04086e-21)
(44.4867 16.3661 5.65249e-19)
(44.4981 16.4655 3.37731e-19)
(44.2964 16.4995 1.89186e-19)
(43.8212 16.4489 4.42743e-19)
(42.5083 16.0404 1.18423e-20)
(39.0025 14.7629 -5.89394e-19)
(31.3509 11.7671 -3.3693e-19)
(17.8078 6.57605 -9.48303e-19)
(5.21092 2.14708 1.06609e-18)
(-0.365055 0.66229 -4.75955e-19)
(-2.22622 0.248317 0)
(-2.31827 0.165189 0)
(-1.16267 0.104102 1.65296e-19)
(42.0915 0.0141133 1.2453e-18)
(45.3067 -0.0756886 5.21498e-19)
(45.4862 0.352706 -5.3983e-19)
(45.6319 0.347355 1.87e-20)
(45.8294 0.767439 1.34288e-18)
(46.0679 0.972916 -2.38399e-20)
(46.2984 1.35011 0)
(46.557 1.70518 -1.08723e-18)
(46.8327 2.11582 -3.81415e-20)
(47.119 2.55946 -1.62974e-21)
(47.443 3.09903 1.64838e-18)
(47.7336 3.67701 -8.04795e-19)
(47.9922 4.2752 1.94681e-21)
(48.2258 4.91158 4.91262e-19)
(48.4237 5.59108 0)
(48.572 6.29988 0)
(48.6551 7.03239 7.13407e-19)
(48.6869 7.77793 1.05152e-18)
(48.6688 8.53108 0)
(48.5893 9.2853 -5.73357e-19)
(48.4569 10.0223 -6.31987e-19)
(48.2791 10.7268 -1.86161e-19)
(48.0382 11.343 6.73138e-20)
(47.6934 11.8086 7.49134e-19)
(47.436 12.2831 2.42732e-19)
(47.2549 12.9315 2.47041e-19)
(46.9349 13.5581 -7.72222e-19)
(46.5191 13.9946 -5.25389e-19)
(46.1691 14.34 6.44395e-19)
(45.9325 14.6644 -6.73943e-19)
(45.6516 15.0092 0)
(45.3042 15.2995 0)
(45.0967 15.4626 1.17295e-20)
(44.9998 15.6902 -4.13131e-19)
(44.8293 15.8588 4.57469e-19)
(44.7023 16.0134 7.52391e-19)
(44.7399 16.1942 -2.76714e-19)
(44.6953 16.301 -6.02413e-19)
(44.5013 16.3365 -6.90046e-19)
(44.0577 16.3092 -3.91314e-19)
(42.9219 16.0034 -9.5992e-21)
(39.9496 14.9564 5.23847e-19)
(32.9876 12.2829 0)
(19.9451 7.40478 3.33863e-19)
(6.84148 2.85658 3.73554e-19)
(0.632726 1.11661 4.16063e-19)
(-1.85587 0.605023 1.39935e-18)
(-2.57695 0.438011 -5.20977e-19)
(-2.16523 0.322682 0)
(-0.94927 0.141761 0)
(42.013 -0.0273184 4.88944e-20)
(45.4706 -0.142939 -9.56139e-19)
(45.6424 0.223791 5.5676e-19)
(45.81 0.196938 -1.31595e-18)
(45.9801 0.548334 -7.47888e-19)
(46.2419 0.694834 -1.04321e-21)
(46.5413 0.999989 3.00469e-20)
(46.8713 1.34103 1.0122e-18)
(47.1931 1.7132 8.10666e-20)
(47.5086 2.15209 9.84902e-20)
(47.8021 2.58969 -8.42453e-19)
(48.105 3.09076 -1.27422e-19)
(48.4019 3.66352 -1.27068e-18)
(48.6695 4.27914 -1.46933e-18)
(48.8923 4.9343 2.0121e-19)
(49.0858 5.63247 -2.24264e-19)
(49.24 6.37201 0)
(49.341 7.13835 -1.2464e-18)
(49.3858 7.92739 0)
(49.3724 8.72007 0)
(49.2937 9.51523 0)
(49.1515 10.301 -4.35438e-19)
(48.9428 11.0999 1.37688e-18)
(48.7481 11.997 -9.61296e-19)
(48.4008 12.826 0)
(47.9271 13.3964 -2.88182e-19)
(47.502 13.8035 -1.03174e-18)
(47.1698 14.2633 -1.41637e-18)
(46.8202 14.7209 -9.70479e-19)
(46.3515 15.1043 6.21159e-19)
(45.9231 15.3368 -7.41992e-19)
(45.6888 15.4894 3.99826e-19)
(45.4645 15.7288 8.42742e-19)
(45.1629 15.8531 0)
(44.9948 15.9698 4.93287e-19)
(44.9773 16.1039 -1.00939e-18)
(44.8495 16.1887 -3.60861e-21)
(44.6745 16.2142 5.71927e-19)
(44.2669 16.1547 3.38538e-19)
(43.2317 15.9023 0)
(40.5793 14.9886 4.77183e-19)
(34.2045 12.6317 -5.38754e-19)
(21.2244 7.92974 1.21205e-18)
(8.38463 3.58905 0)
(1.63407 1.69334 -1.4861e-18)
(-1.2352 1.17091 4.11766e-19)
(-2.40863 1.05237 -4.53885e-19)
(-2.69403 0.968139 -5.08608e-19)
(-2.16087 0.667898 1.14533e-18)
(-0.891256 0.242283 1.22175e-21)
(41.8455 -0.0949739 -9.01379e-19)
(45.5516 -0.294988 1.05502e-18)
(45.7934 -0.0540479 -1.19923e-18)
(45.9911 -0.141591 2.69131e-18)
(46.2483 0.169875 -1.63818e-18)
(46.5583 0.276002 1.13097e-19)
(46.8729 0.595697 -1.14417e-18)
(47.2262 0.887733 0)
(47.6037 1.24871 -1.4853e-18)
(48.0052 1.65943 1.85129e-18)
(48.4491 2.18328 5.82955e-21)
(48.8575 2.75812 -1.40188e-19)
(49.2451 3.37991 1.26641e-18)
(49.6054 4.06159 -1.63385e-19)
(49.9173 4.80368 1.6582e-18)
(50.1899 5.59232 2.52515e-19)
(50.4104 6.42827 0)
(50.5308 7.29641 1.24078e-18)
(50.5758 8.18309 3.19071e-18)
(50.5357 9.08963 0)
(50.4165 9.98499 0)
(50.2111 10.8564 0)
(49.9147 11.6558 -1.85559e-18)
(49.4852 12.2861 -3.21629e-18)
(49.083 12.8196 6.28766e-19)