/*--------------------------------*- C++ -*----------------------------------*\
| =========                 |                                                 |
| \\      /  F ield         | OpenFOAM: The Open Source CFD Toolbox           |
|  \\    /   O peration     | Version:  v1912                                 |
|   \\  /    A nd           | Website:  www.openfoam.com                      |
|    \\/     M anipulation  |                                                 |
\*---------------------------------------------------------------------------*/
FoamFile
{
    version     2.0;
    format      ascii;
    class       surfaceScalarField;
    location    "0.14";
    object      phi;
}
// * * * * * * * * * * * * * * * * * * * * * * * * * * * * * * * * * * * * * //

dimensions      [0 3 -1 0 0 0 0];
oriented        oriented;


internalField   nonuniform List<scalar> 
13060
(
0.00553698
0.988662
-0.994199
0.00701929
0.946321
-0.947804
0.00782459
0.900759
-0.901564
0.00846591
0.857543
-0.858185
0.00903079
0.817272
-0.817837
0.00937746
0.779454
-0.779801
0.0095668
0.743241
-0.74343
0.00968258
0.708648
-0.708764
0.00952931
0.675551
-0.675398
0.0095679
0.643759
-0.643798
0.00932209
0.613399
-0.613154
0.00914324
0.584519
-0.58434
0.00905951
0.55676
-0.556677
0.00877253
0.530342
-0.530055
0.00854506
0.504776
-0.504549
0.0084349
0.480326
-0.480216
0.00835724
0.456888
-0.45681
0.0083239
0.43455
-0.434517
0.00827494
0.413157
-0.413108
0.00822434
0.39269
-0.392639
0.00814926
0.37312
-0.373045
0.00805923
0.354421
-0.354331
0.00794947
0.336631
-0.336521
0.00785746
0.319592
-0.3195
0.00789291
0.303261
-0.303296
0.00790944
0.287713
-0.28773
0.00779906
0.27307
-0.27296
0.00757145
0.259152
-0.258924
0.00734711
0.245782
-0.245558
0.0070364
0.233196
-0.232885
0.00662653
0.221324
-0.220914
0.00618758
0.210014
-0.209575
0.00571672
0.199289
-0.198818
0.00521428
0.18916
-0.188657
0.00465215
0.179624
-0.179062
0.00406236
0.170637
-0.170047
0.00346427
0.162221
-0.161623
0.002825
0.154343
-0.153704
0.00217271
0.146939
-0.146287
0.00152534
0.139995
-0.139348
0.000863403
0.133486
-0.132824
0.000213902
0.127408
-0.126759
-0.000469216
0.12172
-0.121037
-0.00112879
0.116418
-0.115759
-0.00174347
0.111452
-0.110837
-0.00225859
0.106903
-0.106388
-0.00283907
0.102272
-0.101691
-0.00305995
0.0985636
-0.0983427
-0.00232057
0.0898583
-0.0905977
0.060617
-0.0629375
0.00561845
0.983043
0.00661726
0.945322
0.00675212
0.900624
0.00633239
0.857963
0.00589681
0.817708
0.00538987
0.779961
0.00501211
0.743618
0.00465725
0.709003
0.00444058
0.675768
0.00415059
0.644049
0.00396878
0.613581
0.00400721
0.58448
0.00395963
0.556808
0.00415183
0.53015
0.00427489
0.504653
0.0042255
0.480376
0.00414307
0.45697
0.00399767
0.434696
0.00386625
0.413288
0.0037377
0.392818
0.00359889
0.373258
0.00344136
0.354579
0.00325763
0.336815
0.0030219
0.319828
0.00261473
0.303668
0.00210453
0.288224
0.00171865
0.273456
0.00146199
0.259409
0.0011123
0.246132
0.000749912
0.233558
0.000489515
0.221584
0.000197791
0.210306
-0.00014779
0.199635
-0.000524348
0.189536
-0.000906194
0.180006
-0.00132029
0.171051
-0.00176726
0.162668
-0.00219843
0.154774
-0.00263413
0.147375
-0.00308789
0.140449
-0.00351228
0.13391
-0.00389228
0.127788
-0.00421128
0.122039
-0.00446506
0.116672
-0.00465181
0.111638
-0.00473764
0.106989
-0.00479968
0.102334
-0.00428789
0.0980518
-0.00295537
0.0885258
0.0576616
0.00543561
0.977608
0.00565526
0.945103
0.00523788
0.901042
0.00434576
0.858855
0.00374702
0.818306
0.0031092
0.780599
0.00244556
0.744282
0.00180688
0.709642
0.00111978
0.676455
0.000586787
0.644582
-5.12038e-05
0.614219
-0.00071219
0.585141
-0.00116902
0.557265
-0.00187432
0.530855
-0.00246244
0.505241
-0.00282363
0.480737
-0.00316801
0.457315
-0.00343833
0.434966
-0.00369523
0.413545
-0.00393956
0.393063
-0.00418334
0.373502
-0.00440987
0.354805
-0.00462604
0.337031
-0.00480454
0.320007
-0.00477231
0.303636
-0.00467632
0.288128
-0.00478163
0.273561
-0.00498147
0.259609
-0.00509671
0.246247
-0.00528555
0.233747
-0.00560019
0.221899
-0.0058612
0.210567
-0.00610353
0.199877
-0.00636015
0.189793
-0.0066348
0.18028
-0.00689018
0.171306
-0.00711442
0.162892
-0.00734554
0.155005
-0.00755061
0.14758
-0.00770085
0.140599
-0.00781919
0.134028
-0.00789063
0.12786
-0.00788253
0.122031
-0.00778156
0.116571
-0.00757839
0.111435
-0.00726066
0.106671
-0.00686278
0.101936
-0.00576549
0.0969545
-0.00369898
0.0864593
0.0539626
0.00414508
0.973463
0.00383333
0.945415
0.00294519
0.90193
0.00161675
0.860184
0.000144464
0.819779
-0.00106076
0.781804
-0.00203318
0.745254
-0.003024
0.710632
-0.00379315
0.677224
-0.0046537
0.645443
-0.00540713
0.614973
-0.00576092
0.585495
-0.00619187
0.557696
-0.00632546
0.530989
-0.00658711
0.505503
-0.00695585
0.481106
-0.00732364
0.457683
-0.0076887
0.435331
-0.00802348
0.41388
-0.00833773
0.393377
-0.00863915
0.373804
-0.0089209
0.355087
-0.00919621
0.337306
-0.00950144
0.320312
-0.00999862
0.304133
-0.0105623
0.288691
-0.010927
0.273926
-0.0111685
0.25985
-0.0114445
0.246523
-0.0116513
0.233954
-0.0117638
0.222011
-0.011908
0.210711
-0.0120607
0.20003
-0.0121732
0.189905
-0.0122468
0.180354
-0.0123178
0.171377
-0.0123773
0.162952
-0.0123706
0.154999
-0.012322
0.147532
-0.0122376
0.140515
-0.0120683
0.133859
-0.011795
0.127586
-0.0114323
0.121669
-0.0109623
0.116101
-0.0103648
0.110838
-0.00957205
0.105878
-0.00868606
0.10105
-0.00716254
0.095431
-0.00443681
0.0837335
0.0495258
0.00326848
0.970194
0.001987
0.946696
0.000261622
0.903655
-0.000868925
0.861314
-0.00234144
0.821251
-0.00369983
0.783162
-0.00510055
0.746655
-0.00628669
0.711818
-0.00747001
0.678407
-0.00849873
0.646471
-0.0093519
0.615826
-0.0105265
0.58667
-0.0116225
0.558792
-0.0127775
0.532144
-0.013643
0.506368
-0.0143111
0.481774
-0.0148974
0.458269
-0.0154062
0.43584
-0.0158664
0.41434
-0.0162941
0.393805
-0.0166894
0.374199
-0.0170392
0.355437
-0.0173345
0.337602
-0.0175509
0.320528
-0.0174877
0.30407
-0.0173177
0.288521
-0.0173677
0.273976
-0.0175271
0.260009
-0.0175923
0.246588
-0.0176665
0.234028
-0.0178065
0.222151
-0.0178707
0.210775
-0.0178695
0.200029
-0.0178553
0.189891
-0.0178181
0.180317
-0.01771
0.171269
-0.0175271
0.162769
-0.0173116
0.154783
-0.0170217
0.147242
-0.0166227
0.140116
-0.0161438
0.13338
-0.0155799
0.127022
-0.0148991
0.120988
-0.014094
0.115296
-0.0131697
0.109913
-0.0120807
0.104789
-0.0108261
0.0997955
-0.00881452
0.0934194
-0.00525467
0.0801737
0.0442711
0.00196788
0.968226
0.000284705
0.948379
-0.00220443
0.906144
-0.00422793
0.863338
-0.00635069
0.823374
-0.00822912
0.785041
-0.00980941
0.748235
-0.0113132
0.713322
-0.0126275
0.679722
-0.0139287
0.647772
-0.015122
0.617019
-0.0159184
0.587466
-0.0164745
0.559348
-0.016916
0.532585
-0.0176112
0.507064
-0.0182949
0.482457
-0.0189264
0.4589
-0.0195134
0.436427
-0.0200476
0.414874
-0.0205414
0.394299
-0.0209893
0.374647
-0.0213969
0.355845
-0.0217671
0.337972
-0.0221481
0.320909
-0.0227499
0.304672
-0.0233874
0.289159
-0.0236822
0.274271
-0.0237895
0.260117
-0.0239409
0.246739
-0.024001
0.234088
-0.0239047
0.222055
-0.0238063
0.210677
-0.0236884
0.199911
-0.0234935
0.189696
-0.0232169
0.18004
-0.0228997
0.170952
-0.0225325
0.162401
-0.022056
0.154307
-0.0214938
0.14668
-0.0208618
0.139484
-0.0201161
0.132635
-0.0192365
0.126143
-0.0182479
0.119999
-0.0171396
0.114188
-0.0159091
0.108683
-0.0146088
0.103489
-0.0129033
0.0980899
-0.0103818
0.090898
-0.00603009
0.075822
0.038241
0.00124808
0.966978
-0.0014717
0.951099
-0.0043613
0.909034
-0.00676191
0.865738
-0.00888162
0.825494
-0.0107934
0.786952
-0.0128587
0.750301
-0.0145503
0.715014
-0.0162865
0.681458
-0.0178162
0.649302
-0.0191655
0.618369
-0.0208417
0.589142
-0.0224746
0.560981
-0.0239468
0.534057
-0.0250592
0.508176
-0.0260665
0.483465
-0.0269576
0.459791
-0.0277223
0.437191
-0.0283993
0.415551
-0.0290007
0.3949
-0.0295251
0.375171
-0.0299685
0.356288
-0.0303078
0.338311
-0.0304693
0.321071
-0.030322
0.304524
-0.0300436
0.28888
-0.0300324
0.27426
-0.0300957
0.26018
-0.0300047
0.246648
-0.0298976
0.233981
-0.02982
0.221977
-0.0296157
0.210473
-0.0293022
0.199597
-0.0289375
0.189331
-0.028524
0.179627
-0.0280063
0.170434
-0.0273755
0.161771
-0.0266825
0.153614
-0.0258919
0.145889
-0.0249647
0.138557
-0.0239357
0.131606
-0.0228208
0.125028
-0.0215871
0.118766
-0.0202296
0.11283
-0.0187568
0.10721
-0.0172596
0.101992
-0.0151522
0.0959825
-0.0120607
0.0878065
-0.00681099
0.0705722
0.0314301
0.000303991
0.966674
-0.00354134
0.954944
-0.00694059
0.912433
-0.0100103
0.868808
-0.0127769
0.82826
-0.0152652
0.789441
-0.0174688
0.752504
-0.0197302
0.717275
-0.0216659
0.683394
-0.023332
0.650968
-0.0249137
0.61995
-0.0259828
0.590211
-0.0267796
0.561777
-0.0276295
0.534907
-0.0286976
0.509244
-0.0296698
0.484437
-0.0305563
0.460678
-0.031389
0.438024
-0.0321451
0.416308
-0.0328214
0.395576
-0.0334066
0.375756
-0.0339171
0.356798
-0.0343779
0.338772
-0.0348867
0.32158
-0.0355618
0.3052
-0.0361784
0.289497
-0.0363418
0.274423
-0.0362643
0.260103
-0.0362152
0.246599
-0.0360543
0.23382
-0.0357009
0.221624
-0.0353005
0.210072
-0.034851
0.199148
-0.0342941
0.188775
-0.0336146
0.178947
-0.0328693
0.169689
-0.0320592
0.160961
-0.0311175
0.152672
-0.0300652
0.144837
-0.0289364
0.137428
-0.0277009
0.13037
-0.0263308
0.123658
-0.0248667
0.117301
-0.0233283
0.111292
-0.0217425
0.105624
-0.0198455
0.100095
-0.0173821
0.093519
-0.0136794
0.0841038
-0.00750135
0.0643942
0.0239287
-0.000320983
0.966995
-0.00496948
0.959593
-0.00884637
0.91631
-0.0120544
0.872016
-0.0151176
0.831323
-0.0178058
0.792129
-0.020393
0.755092
-0.0224974
0.71938
-0.0246753
0.685572
-0.0266271
0.65292
-0.0286305
0.621954
-0.0308136
0.592394
-0.0330454
0.564009
-0.0347886
0.536651
-0.0362194
0.510675
-0.0375826
0.4858
-0.0387864
0.461882
-0.03983
0.439068
-0.0407436
0.417221
-0.041537
0.39637
-0.0422029
0.376422
-0.0427415
0.357337
-0.0431102
0.339141
-0.0431867
0.321656
-0.042899
0.304912
-0.0425286
0.289126
-0.0424252
0.27432
-0.042359
0.260036
-0.0420599
0.2463
-0.0416822
0.233442
-0.0413119
0.221254
-0.0408015
0.209562
-0.0401423
0.198488
-0.039396
0.188028
-0.0385903
0.178142
-0.0376647
0.168763
-0.0366008
0.159897
-0.0354643
0.151535
-0.0342362
0.143608
-0.0328707
0.136062
-0.0313993
0.128899
-0.029871
0.12213
-0.0282542
0.115685
-0.026531
0.109568
-0.0248297
0.103923
-0.0225482
0.0978134
-0.0196775
0.0906483
-0.0151247
0.0795511
-0.00801789
0.0572874
0.0159108
-0.00110658
0.968102
-0.00626989
0.964756
-0.010754
0.920794
-0.0149185
0.876181
-0.0185471
0.834952
-0.0217709
0.795353
-0.0243901
0.757711
-0.0271921
0.722182
-0.0297156
0.688095
-0.0319202
0.655125
-0.0337853
0.623819
-0.03514
0.593749
-0.036307
0.565176
-0.037751
0.538095
-0.0392016
0.512125
-0.0404167
0.487015
-0.041581
0.463046
-0.0426915
0.440178
-0.0436998
0.418229
-0.0445809
0.397251
-0.0453325
0.377174
-0.0459703
0.357975
-0.0465287
0.339699
-0.0471243
0.322252
-0.0478615
0.305649
-0.0484285
0.289693
-0.0484559
0.274347
-0.0481779
0.259759
-0.047917
0.246039
-0.0475269
0.233052
-0.0468877
0.220614
-0.0461499
0.208824
-0.0453534
0.197692
-0.0444445
0.187119
-0.0433834
0.177081
-0.0422394
0.167619
-0.0410384
0.158696
-0.0397093
0.150206
-0.0382598
0.142159
-0.0367408
0.134543
-0.0351456
0.127303
-0.0334279
0.120412
-0.0316445
0.113901
-0.0299328
0.107857
-0.0279129
0.101903
-0.0253551
0.0952556
-0.0217885
0.0870817
-0.0158689
0.0736315
-0.00689807
0.0483165
0.00901274
-0.00174918
0.969851
-0.00709222
0.970099
-0.0117643
0.925466
-0.0161576
0.880574
-0.0198749
0.838669
-0.0232577
0.798736
-0.0264443
0.760897
-0.0290791
0.724816
-0.0315108
0.690527
-0.0341635
0.657777
-0.0367612
0.626417
-0.0395609
0.596549
-0.0421962
0.567811
-0.0442753
0.540174
-0.046166
0.514016
-0.0480061
0.488855
-0.0495976
0.464638
-0.0509592
0.44154
-0.0521379
0.419408
-0.0531658
0.398279
-0.0540264
0.378034
-0.0547018
0.35865
-0.055138
0.340135
-0.0552134
0.322327
-0.0548465
0.305282
-0.0543434
0.28919
-0.054096
0.2741
-0.0538989
0.259561
-0.0534101
0.24555
-0.0527585
0.232401
-0.052093
0.219949
-0.051297
0.208028
-0.0503247
0.19672
-0.0492311
0.186026
-0.0480849
0.175934
-0.0468278
0.166362
-0.0454194
0.157287
-0.0439345
0.148721
-0.042382
0.140607
-0.0407138
0.132875
-0.0389368
0.125526
-0.0371267
0.118602
-0.0352992
0.112074
-0.0334326
0.10599
-0.031035
0.0995056
-0.0281235
0.0923441
-0.0235266
0.0824848
-0.0157264
0.0658314
-0.00476779
0.0373579
0.00424495
-0.00218958
0.972041
-0.00791653
0.975826
-0.0129658
0.930515
-0.0178799
0.885488
-0.021966
0.842755
-0.0258307
0.8026
-0.0294398
0.764506
-0.0327934
0.72817
-0.0358666
0.6936
-0.0383744
0.660285
-0.0406219
0.628664
-0.0423944
0.598321
-0.0442272
0.569644
-0.0462759
0.542222
-0.0479947
0.515735
-0.0495989
0.49046
-0.0511658
0.466205
-0.052655
0.443029
-0.0540064
0.42076
-0.0551742
0.399447
-0.0561667
0.379027
-0.0569984
0.359482
-0.0577062
0.340843
-0.0584002
0.323021
-0.0591924
0.306074
-0.0597903
0.289788
-0.0597593
0.274069
-0.0592949
0.259097
-0.0588301
0.245086
-0.0582632
0.231834
-0.0574012
0.219087
-0.0563724
0.206999
-0.0552769
0.195624
-0.0540888
0.184838
-0.0527336
0.174579
-0.0512775
0.164906
-0.0497838
0.155794
-0.0481879
0.147125
-0.0464728
0.138891
-0.044688
0.13109
-0.0428662
0.123705
-0.0409656
0.116701
-0.0391468
0.110255
-0.0369501
0.103793
-0.0342284
0.0967839
-0.030403
0.0885188
-0.0244512
0.0765329
-0.015229
0.0566092
-0.00295553
0.0250845
0.00128942
-0.00300421
0.975045
-0.00878708
0.981609
-0.0135857
0.935314
-0.0180887
0.889991
-0.022415
0.847082
-0.0261903
0.806375
-0.0297444
0.768061
-0.0329905
0.731416
-0.0360202
0.69663
-0.0393677
0.663633
-0.0426217
0.631918
-0.0459743
0.601674
-0.0488643
0.572534
-0.0513627
0.544721
-0.0539509
0.518323
-0.0563776
0.492886
-0.0584642
0.468291
-0.0602813
0.444846
-0.0618757
0.422354
-0.0632629
0.400834
-0.0644345
0.380199
-0.0653642
0.360412
-0.0659877
0.341467
-0.0661942
0.323228
-0.065862
0.305742
-0.0652865
0.289213
-0.0649161
0.273698
-0.0646516
0.258833
-0.064054
0.244488
-0.0631756
0.230955
-0.0622622
0.218173
-0.0612603
0.205997
-0.0600702
0.194434
-0.0587162
0.183484
-0.0573187
0.173182
-0.0558428
0.16343
-0.0542157
0.154167
-0.0525025
0.145412
-0.0507423
0.137131
-0.0489106
0.129259
-0.0469675
0.121761
-0.0451716
0.114905
-0.0431721
0.108255
-0.0406545
0.101276
-0.0374437
0.093573
-0.0327108
0.0837858
-0.0249447
0.0687668
-0.0132379
0.0449024
-0.00178933
0.0136359
-0.000499913
-0.00291797
0.977963
-0.00934932
0.98804
-0.0143598
0.940325
-0.0190386
0.89467
-0.0232829
0.851326
-0.0275582
0.810651
-0.0313603
0.771863
-0.0351548
0.735211
-0.0386625
0.700137
-0.0415858
0.666556
-0.0442409
0.634573
-0.0467169
0.60415
-0.0494272
0.575244
-0.0520974
0.547391
-0.0543086
0.520534
-0.0564172
0.494995
-0.0585537
0.470428
-0.0605875
0.44688
-0.0624404
0.424207
-0.0640634
0.402457
-0.0654617
0.381597
-0.0666311
0.361581
-0.0676072
0.342443
-0.0684894
0.32411
-0.069426
0.306679
-0.0701978
0.289985
-0.070293
0.273794
-0.0697589
0.258298
-0.0691427
0.243872
-0.0684763
0.230289
-0.0674939
0.217191
-0.0662644
0.204768
-0.0649483
0.193118
-0.0635801
0.182116
-0.0620484
0.17165
-0.0603917
0.161773
-0.0587081
0.152483
-0.0569619
0.143666
-0.0551167
0.135286
-0.0531924
0.127334
-0.0514101
0.119979
-0.0495551
0.11305
-0.0472166
0.105917
-0.0444724
0.0985317
-0.0406601
0.0897607
-0.0345105
0.0776362
-0.0243427
0.0585991
-0.00944438
0.030004
-0.00116024
0.00535175
-0.00166016
-0.00175301
0.979716
-0.00770074
0.993988
-0.0126901
0.945314
-0.017367
0.899347
-0.0217428
0.855702
-0.0257212
0.814629
-0.029492
0.775633
-0.0332025
0.738921
-0.0369989
0.703934
-0.0409775
0.670535
-0.0449179
0.638513
-0.0487018
0.607934
-0.0520607
0.578603
-0.0553078
0.550638
-0.0587567
0.523983
-0.0619199
0.498158
-0.0646658
0.473174
-0.0671401
0.449354
-0.0693765
0.426443
-0.0713541
0.404434
-0.0730502
0.383293
-0.0744468
0.362978
-0.0754821
0.343478
-0.0760544
0.324682
-0.0759917
0.306616
-0.0754956
0.289489
-0.0750971
0.273395
-0.0748725
0.258074
-0.0743234
0.243323
-0.0733411
0.229307
-0.0722456
0.216096
-0.0711047
0.203627
-0.0697917
0.191805
-0.0682692
0.180593
-0.0667019
0.170082
-0.0651053
0.160177
-0.063382
0.15076
-0.06156
0.141844
-0.0596963
0.133422
-0.0579145
0.125552
-0.0561426
0.118207
-0.0539847
0.110892
-0.0515316
0.103464
-0.0482876
0.0952876
-0.043128
0.0846012
-0.0340714
0.0685797
-0.0199221
0.0444497
-0.00528109
0.0153631
-0.000518629
0.000589295
-0.00217879
-0.00136841
0.981084
-0.00631295
0.998933
-0.0114513
0.950452
-0.0165173
0.904413
-0.020743
0.859927
-0.025335
0.819221
-0.0296585
0.779957
-0.033551
0.742814
-0.03731
0.707693
-0.04071
0.673934
-0.0440749
0.641878
-0.0474705
0.61133
-0.0510136
0.582146
-0.0543426
0.553967
-0.0572373
0.526878
-0.0600781
0.500999
-0.0630286
0.476124
-0.0658406
0.452166
-0.0684715
0.429074
-0.0708125
0.406775
-0.0728821
0.385362
-0.0746546
0.36475
-0.0761457
0.344969
-0.0774373
0.325974
-0.0787022
0.307881
-0.07985
0.290636
-0.0803168
0.273862
-0.0799396
0.257697
-0.0792913
0.242674
-0.0786053
0.228621
-0.0776228
0.215113
-0.0762995
0.202304
-0.0748186
0.190324
-0.0733261
0.179101
-0.0717052
0.168462
-0.0699352
0.158407
-0.0681412
0.148966
-0.0663433
0.140046
-0.064547
0.131626
-0.0627977
0.123803
-0.0607982
0.116208
-0.0585193
0.108613
-0.0556124
0.100557
-0.0510971
0.0907724
-0.0433069
0.0768109
-0.0306135
0.0558863
-0.0128862
0.0267223
-0.00260235
0.00507923
-2.61389e-05
-0.00198691
-0.00220493
-0.000374372
0.981459
-0.00472216
1.00328
-0.00925189
0.954982
-0.0136904
0.908851
-0.0176579
0.863895
-0.021561
0.823124
-0.0255159
0.783912
-0.0295542
0.746852
-0.0338369
0.711976
-0.038388
0.678486
-0.0428451
0.646335
-0.0471427
0.615627
-0.0512337
0.586237
-0.0554745
0.558208
-0.0598184
0.531222
-0.0638214
0.505002
-0.067512
0.479815
-0.0709538
0.455608
-0.0741238
0.432244
-0.0770166
0.409668
-0.0795655
0.387911
-0.0817491
0.366934
-0.0835324
0.346752
-0.084819
0.32726
-0.0854015
0.308463
-0.08527
0.290505
-0.0850155
0.273607
-0.0849757
0.257657
-0.0846689
0.242368
-0.0837612
0.227713
-0.082563
0.213915
-0.0813099
0.20105
-0.0799267
0.188941
-0.0782846
0.177458
-0.0765593
0.166736
-0.0748669
0.156714
-0.073121
0.14722
-0.0713139
0.138239
-0.0695679
0.12988
-0.0676979
0.121933
-0.0655634
0.114073
-0.062895
0.105945
-0.0589337
0.0965957
-0.0520398
0.0838784
-0.0401274
0.0648985
-0.0218648
0.0376238
-0.00627348
0.011131
-0.000964728
-0.000229521
0.000177382
-0.00312903
-0.00202754
0.000751972
0.980707
-0.00325981
1.00729
-0.00712545
0.958848
-0.0113964
0.913122
-0.0152882
0.867787
-0.0195192
0.827355
-0.0237657
0.788158
-0.0279486
0.751035
-0.0317326
0.71576
-0.0355915
0.682344
-0.0398051
0.650549
-0.0439989
0.619821
-0.0483101
0.590549
-0.0523845
0.562282
-0.0561865
0.535024
-0.0601538
0.508969
-0.0642111
0.483872
-0.0680556
0.459453
-0.0716821
0.435871
-0.0751039
0.41309
-0.0781955
0.391003
-0.0809188
0.369657
-0.0832679
0.349102
-0.0853024
0.329295
-0.0871913
0.310352
-0.0889942
0.292308
-0.090162
0.274775
-0.0902707
0.257766
-0.0897635
0.24186
-0.089137
0.227086
-0.0882541
0.213032
-0.0869367
0.199733
-0.0852968
0.187301
-0.0836359
0.175797
-0.0819217
0.165022
-0.0800583
0.154851
-0.0781723
0.145334
-0.0763815
0.136448
-0.0745717
0.12807
-0.0725344
0.119896
-0.0700433
0.111582
-0.0664704
0.102372
-0.0602813
0.0904066
-0.0490937
0.0726908
-0.0310045
0.0468093
-0.0118087
0.0184279
-0.00287151
0.00219383
-0.000204338
-0.00289669
0.000204857
-0.00353822
-0.00182269
0.00250601
0.978201
-0.000521543
1.01032
-0.00351376
0.96184
-0.00684695
0.916455
-0.0105311
0.871471
-0.0140154
0.83084
-0.0177956
0.791939
-0.0223232
0.755562
-0.0269085
0.720345
-0.0316998
0.687136
-0.036378
0.655227
-0.0412869
0.62473
-0.0462418
0.595504
-0.0514484
0.567489
-0.0568041
0.540379
-0.0618715
0.514037
-0.0667046
0.488705
-0.0713556
0.464104
-0.0758085
0.440323
-0.0799507
0.417232
-0.0837401
0.394792
-0.0871274
0.373044
-0.0900577
0.352032
-0.0924444
0.331682
-0.0941155
0.312023
-0.0948014
0.292994
-0.0949928
0.274966
-0.0953185
0.258091
-0.0954541
0.241996
-0.094857
0.226489
-0.0936816
0.211857
-0.0922908
0.198342
-0.090799
0.185809
-0.0890223
0.174021
-0.0870519
0.163052
-0.0851481
0.152947
-0.0833147
0.1435
-0.0814781
0.134612
-0.0794583
0.12605
-0.0770466
0.117484
-0.0737092
0.108245
-0.06811
0.096773
-0.0576265
0.0799231
-0.0398195
0.0548838
-0.0181611
0.0251509
-0.00515345
0.00542025
-0.000888435
-0.00207119
0.000254483
-0.00403961
0.000249641
-0.00353338
-0.00157305
0.0038982
0.974302
0.00198969
1.01223
-8.64152e-05
0.963916
-0.00311066
0.919479
-0.00705861
0.875419
-0.0110508
0.834832
-0.0147545
0.795642
-0.0185142
0.759322
-0.022633
0.724464
-0.0271249
0.691628
-0.0316178
0.65972
-0.0363473
0.629459
-0.0413505
0.600507
-0.0462306
0.572369
-0.0510975
0.545246
-0.0562987
0.519238
-0.0615473
0.493954
-0.0667033
0.46926
-0.0717237
0.445344
-0.0764978
0.422006
-0.0810129
0.399307
-0.0851281
0.37716
-0.0887715
0.355675
-0.0919579
0.334868
-0.0948192
0.314884
-0.0975443
0.295719
-0.0998228
0.277245
-0.100914
0.259183
-0.100885
0.241967
-0.10044
0.226045
-0.0997273
0.211143
-0.0985294
0.197144
-0.0967259
0.184006
-0.094716
0.172011
-0.0927494
0.161085
-0.0906877
0.150885
-0.0885437
0.141356
-0.086348
0.132416
-0.0839051
0.123608
-0.0807173
0.114296
-0.0755451
0.103073
-0.0657767
0.0870046
-0.0481544
0.0623008
-0.0247765
0.0315059
-0.00844351
0.00881796
-0.00240078
-0.000622485
-0.00053085
-0.00394111
2.30477e-05
-0.00459351
0.000109604
-0.00361993
-0.00146344
0.00587946
0.968423
0.00468616
1.01342
0.00353275
0.965069
0.00176755
0.921245
-0.000931486
0.878118
-0.00429368
0.838194
-0.00790518
0.799254
-0.0121575
0.763574
-0.0167267
0.729033
-0.0212744
0.696175
-0.0263333
0.664779
-0.0318965
0.635023
-0.0373863
0.605997
-0.0433915
0.578374
-0.0496793
0.551534
-0.0558198
0.525378
-0.0618965
0.50003
-0.0679273
0.47529
-0.0738487
0.451265
-0.0795678
0.427725
-0.0849792
0.404719
-0.0900182
0.382199
-0.0945758
0.360233
-0.098548
0.33884
-0.101782
0.318119
-0.103903
0.29784
-0.104986
0.278327
-0.105957
0.260154
-0.10675
0.24276
-0.106814
0.226109
-0.105958
0.210288
-0.104453
0.19564
-0.102729
0.182281
-0.100674
0.169956
-0.0982083
0.158619
-0.095833
0.14851
-0.093396
0.13892
-0.090734
0.129754
-0.0875338
0.120407
-0.0825547
0.109317
-0.0733166
0.0938345
-0.0558169
0.0695049
-0.0313143
0.0377982
-0.0124564
0.0126479
-0.00478693
0.00114852
-0.00215765
-0.00325176
-0.00123768
-0.00486109
-0.000726549
-0.00510463
-0.000269775
-0.00407671
-0.00173322
0.0076748
0.960748
0.00748127
1.01362
0.00576452
0.966786
0.00374531
0.923264
0.00215208
0.879711
-0.000823847
0.84117
-0.00422972
0.80266
-0.00742615
0.766771
-0.0115352
0.733142
-0.015935
0.700575
-0.0204823
0.669326
-0.0253774
0.639918
-0.0307765
0.611396
-0.0363042
0.583902
-0.0420558
0.557286
-0.0483066
0.531629
-0.054762
0.506486
-0.0613379
0.481866
-0.0679242
0.457852
-0.0743744
0.434176
-0.0805803
0.410925
-0.0864382
0.388057
-0.0918687
0.365663
-0.0968166
0.343788
-0.101103
0.322405
-0.105093
0.301831
-0.10889
0.282124
-0.111497
0.26276
-0.112606
0.243869
-0.112697
0.2262
-0.11226
0.20985
-0.111352
0.194732
-0.109556
0.180485
-0.107036
0.167437
-0.104326
0.15591
-0.101341
0.145525
-0.0980939
0.135673
-0.0944242
0.126084
-0.0891423
0.115125
-0.080059
0.100234
-0.0628478
0.0766233
-0.0374332
0.0440903
-0.0162076
0.0165726
-0.00657757
0.00301791
-0.00301185
-0.0024172
-0.00170666
-0.00455696
-0.00114231
-0.00542543
-0.000789669
-0.00545728
-0.000382455
-0.00448392
-0.00211567
0.0102911
0.950457
0.0111316
1.01277
0.0100492
0.967868
0.00860772
0.924705
0.00792573
0.880393
0.00583426
0.843262
0.00259175
0.805902
-0.00104623
0.770409
-0.00467141
0.736767
-0.00920279
0.705107
-0.014563
0.674686
-0.0199192
0.645274
-0.0256215
0.617098
-0.0320589
0.590339
-0.0388963
0.564123
-0.0458133
0.538546
-0.0529891
0.513662
-0.0603705
0.489248
-0.067826
0.465307
-0.0752548
0.441604
-0.0825463
0.418216
-0.0895916
0.395102
-0.0962256
0.372297
-0.102228
0.349791
-0.107521
0.327697
-0.111795
0.306104
-0.114556
0.284886
-0.116466
0.26467
-0.118241
0.245644
-0.119465
0.227424
-0.11951
0.209895
-0.118209
0.193431
-0.116227
0.178503
-0.113912
0.165122
-0.110683
0.15268
-0.106748
0.14159
-0.1022
0.131125
-0.0960044
0.119888
-0.0863607
0.105482
-0.0692611
0.0831344
-0.0431198
0.050482
-0.0187967
0.0197672
-0.00598807
0.00376397
-0.000645617
-0.00232454
0.00141551
-0.00447833
0.00184263
-0.00498408
0.00141327
-0.00499607
0.000629918
-0.00467393
6.53039e-05
-0.00391931
-0.00205037
0.00812723
0.94233
0.0116184
1.00928
0.0123589
0.967128
0.0107454
0.926319
0.00912324
0.882015
0.00810038
0.844284
0.00603766
0.807965
0.00288861
0.773558
-0.000618077
0.740274
-0.00404302
0.708532
-0.00792455
0.678568
-0.0127838
0.650133
-0.0183499
0.622664
-0.0239651
0.595954
-0.0301288
0.570287
-0.0370252
0.545443
-0.0444154
0.521052
-0.0522088
0.497041
-0.0602596
0.473358
-0.0684183
0.449763
-0.0765213
0.426319
-0.0844147
0.402995
-0.0919659
0.379848
-0.099047
0.356872
-0.105535
0.334185
-0.111327
0.311897
-0.116834
0.290392
-0.121548
0.269385
-0.124648
0.248743
-0.12604
0.228816
-0.126256
0.21011
-0.125868
0.193044
-0.124527
0.177162
-0.121687
0.162282
-0.117736
0.148729
-0.112372
0.136226
-0.105084
0.123837
-0.0941328
0.108937
-0.0757642
0.0871132
-0.0475944
0.0549645
-0.0196058
0.0224935
-0.00200571
0.00216705
0.00615793
-0.00439967
0.00926909
-0.0054357
0.00972994
-0.00493917
0.00859174
-0.00384588
0.00638777
-0.0027921
0.00371182
-0.00199797
0.00127124
-0.00147874
-0.000779125
0.00778708
0.934543
0.0113946
1.00568
0.014234
0.964289
0.0153081
0.925245
0.0135
0.883824
0.0123504
0.845434
0.0113266
0.808989
0.00899925
0.775885
0.00588338
0.74339
0.00181228
0.712603
-0.00282376
0.683204
-0.0074996
0.654809
-0.012784
0.627948
-0.01912
0.60229
-0.0260035
0.57717
-0.0332188
0.552658
-0.041003
0.528836
-0.0493182
0.505356
-0.0580251
0.482065
-0.0670305
0.458768
-0.0761878
0.435477
-0.0853449
0.412153
-0.0942628
0.388766
-0.10276
0.365369
-0.1106
0.342024
-0.117508
0.318806
-0.122915
0.295799
-0.126779
0.273249
-0.129927
0.251891
-0.132401
0.23129
-0.134176
0.211886
-0.134117
0.192985
-0.132018
0.175063
-0.129135
0.159399
-0.124471
0.144065
-0.117021
0.128777
-0.10486
0.111676
-0.0840788
0.0881553
-0.0513234
0.0543578
-0.0195036
0.0231446
0.00238473
0.000605199
0.0126713
-0.00811951
0.0160778
-0.00780621
0.016244
-0.0056019
0.0147155
-0.00341069
0.0122461
-0.00137647
0.00909019
0.000363844
0.00553867
0.00155355
0.0020985
0.00196143
0.00131937
0.0055907
0.928952
0.010629
1.00064
0.0129837
0.961934
0.0146219
0.923606
0.0142932
0.884152
0.013488
0.846239
0.0122318
0.810245
0.0107043
0.777413
0.00903739
0.745057
0.00670799
0.714932
0.00370638
0.686206
-0.000604079
0.65912
-0.00550059
0.632845
-0.0105482
0.607338
-0.0164909
0.583113
-0.0233732
0.55954
-0.0309886
0.536452
-0.0393671
0.513735
-0.0483802
0.491078
-0.0579044
0.468292
-0.0677274
0.4453
-0.0776155
0.422041
-0.0874176
0.398568
-0.0969421
0.374894
-0.105965
0.351047
-0.114349
0.32719
-0.122094
0.303544
-0.129408
0.280563
-0.1351
0.257583
-0.138994
0.235184
-0.140808
0.2137
-0.141021
0.193198
-0.140955
0.174997
-0.137798
0.156242
-0.130198
0.136464
-0.116805
0.115384
-0.0932305
0.0881016
-0.0567323
0.0516572
-0.0211922
0.0188178
0.0009693
0.000983106
0.0126433
-0.0110688
0.0161469
-0.0116231
0.0169674
-0.00862671
0.0162806
-0.00491512
0.014384
-0.00151405
0.011702
0.0013055
0.00855229
0.00351354
0.0051582
0.00494764
0.00191065
0.00520898
0.00323002
0.0136853
0.915267
0.0158152
0.998508
0.0154204
0.962329
0.0169597
0.922067
0.0172588
0.883853
0.0162991
0.847199
0.0164264
0.810118
0.0153527
0.778486
0.0129367
0.747472
0.0102269
0.717642
0.00720648
0.689226
0.00394575
0.66238
-0.000402239
0.637193
-0.00614163
0.613077
-0.0123548
0.589326
-0.0191477
0.566333
-0.0267671
0.544071
-0.0352205
0.522188
-0.0444848
0.500342
-0.0545018
0.478309
-0.0651117
0.455909
-0.076145
0.433074
-0.087285
0.409708
-0.0982757
0.385885
-0.108975
0.361747
-0.118988
0.337203
-0.127739
0.312295
-0.134652
0.287476
-0.140335
0.263266
-0.144537
0.239386
-0.147903
0.217066
-0.150842
0.196137
-0.149063
0.173217
-0.141824
0.149003
-0.128212
0.122853
-0.101024
0.0881954
-0.0645171
0.0515949
-0.0332057
0.0203458
-0.016795
0.00240705
-0.00863632
-0.00717557
-0.00649572
-0.0132094
-0.00376875
-0.0143501
-0.000659978
-0.0117355
0.00163932
-0.00721441
0.0025923
-0.00246703
0.00252558
0.00137221
0.00191416
0.00412496
0.000970259
0.00589154
0.000165721
0.00601352
0.00339574
0.0165246
0.898742
0.0207792
0.994253
0.0170608
0.966047
0.0160832
0.923045
0.0166436
0.883293
0.0157659
0.848077
0.0144202
0.811463
0.0149786
0.777928
0.0148934
0.747558
0.0136681
0.718867
0.0116769
0.691217
0.00878849
0.665269
0.00558343
0.640398
0.00190271
0.616758
-0.003157
0.594386
-0.00930265
0.572479
-0.0163742
0.551143
-0.0244309
0.530245
-0.0335693
0.509481
-0.0437674
0.488508
-0.054733
0.466875
-0.0661614
0.444503
-0.0779403
0.421487
-0.0898663
0.397811
-0.101706
0.373586
-0.11308
0.348577
-0.12386
0.323075
-0.133993
0.297609
-0.142797
0.272071
-0.150254
0.246842
-0.155761
0.222573
-0.156988
0.197363
-0.1519
0.16813
-0.139668
0.13677
-0.112846
0.0960314
-0.0848748
0.0602241
-0.0649462
0.0316662
-0.0569607
0.0123604
-0.0528854
-0.00166831
-0.0466451
-0.0134158
-0.0389691
-0.0208854
-0.03001
-0.0233092
-0.0209037
-0.0208418
-0.0130615
-0.0150566
-0.00756953
-0.00795896
-0.00464106
-0.00155626
-0.00326192
0.00274583
-0.0021241
0.00475372
-0.00098883
0.00487825
0.00240691
0.0208644
0.877878
0.0227573
0.99236
0.0187948
0.97001
0.0183088
0.923531
0.0190762
0.882525
0.0193844
0.847768
0.0177596
0.813088
0.0165098
0.779178
0.0158823
0.748185
0.0149131
0.719836
0.0135761
0.692554
0.0117892
0.667056
0.00870874
0.643479
0.00458091
0.620886
1.11602e-05
0.598956
-0.00567052
0.57816
-0.0123485
0.557821
-0.019927
0.537823
-0.0288887
0.518442
-0.0391781
0.498797
-0.0505673
0.478264
-0.0628559
0.456791
-0.0757385
0.43437
-0.0891172
0.411189
-0.102739
0.387208
-0.11592
0.361758
-0.12847
0.335625
-0.138976
0.308115
-0.148158
0.281253
-0.155927
0.254612
-0.159111
0.225758
-0.1576
0.195852
-0.147883
0.158412
-0.125967
0.114854
-0.104966
0.0750306
-0.0935863
0.0488442
-0.0911997
0.0292797
-0.0881511
0.00931172
-0.0828489
-0.0069705
-0.0763282