/*--------------------------------*- C++ -*----------------------------------*\
| =========                 |                                                 |
| \\      /  F ield         | OpenFOAM: The Open Source CFD Toolbox           |
|  \\    /   O peration     | Version:  v1912                                 |
|   \\  /    A nd           | Website:  www.openfoam.com                      |
|    \\/     M anipulation  |                                                 |
\*---------------------------------------------------------------------------*/
FoamFile
{
    version     2.0;
    format      ascii;
    class       volVectorField;
    location    "0.14";
    object      U;
}
// * * * * * * * * * * * * * * * * * * * * * * * * * * * * * * * * * * * * * //

dimensions      [0 1 -1 0 0 0 0];


internalField   nonuniform List<vector> 
6600
(
(39.8429 -0.0462177 0)
(40.0958 -0.0424952 1.02279e-20)
(40.1596 0.0514775 7.17944e-19)
(40.2059 0.164314 0)
(40.2563 0.272242 8.70664e-19)
(40.3121 0.405393 2.91229e-20)
(40.3685 0.553735 -3.23083e-20)
(40.4286 0.70796 -3.63387e-20)
(40.461 0.87707 7.61557e-19)
(40.4969 1.08257 -1.17088e-19)
(40.5 1.26497 0)
(40.5356 1.51016 -1.00952e-18)
(40.5683 1.72685 0)
(40.5579 1.97798 -1.12961e-18)
(40.5105 2.25458 -1.66176e-18)
(40.4692 2.53055 -9.17593e-19)
(40.3996 2.81737 0)
(40.3324 3.12132 0)
(40.2463 3.43961 1.67353e-18)
(40.146 3.77614 -1.55795e-18)
(40.0218 4.13267 -2.38293e-19)
(39.8861 4.50773 -9.28408e-19)
(39.741 4.9082 -1.78065e-18)
(39.583 5.33092 4.15185e-19)
(39.4098 5.77291 1.55184e-18)
(39.1721 6.20242 0)
(38.9771 6.67228 4.03543e-18)
(38.8011 7.20772 0)
(38.5493 7.77091 -2.13057e-18)
(38.2718 8.33895 -1.43293e-18)
(38.0159 8.97534 -3.35329e-19)
(37.742 9.66755 -1.8589e-18)
(37.4455 10.3798 -7.78003e-19)
(37.1422 11.1431 1.64102e-18)
(36.8462 11.9637 3.4481e-19)
(36.5482 12.8474 2.01824e-18)
(36.2648 13.7792 3.89558e-18)
(36.0007 14.784 3.93891e-18)
(35.7465 15.8635 -2.93161e-18)
(35.5177 17.0071 3.15962e-18)
(35.3036 18.2249 1.70143e-18)
(35.1164 19.5373 0)
(34.9627 20.9217 -5.13759e-19)
(34.8382 22.3961 1.2415e-18)
(34.7908 23.9556 0)
(34.8211 25.6701 -4.34454e-19)
(34.8396 27.3244 -1.27648e-18)
(35.1472 29.4383 0)
(33.5644 30.1538 0)
(24.0453 23.0925 -1.41642e-18)
(39.7388 -0.0345118 6.00464e-19)
(40.1783 -0.0679563 -6.02795e-19)
(40.2373 0.0656072 0)
(40.291 0.201343 -1.12154e-20)
(40.3418 0.342667 7.62365e-19)
(40.3983 0.515182 2.68645e-20)
(40.4521 0.693098 -7.75975e-23)
(40.5027 0.869665 -3.30586e-20)
(40.5587 1.06916 0)
(40.583 1.25256 -1.29537e-18)
(40.6325 1.49781 -4.71075e-20)
(40.6217 1.69036 8.17457e-19)
(40.6258 1.92483 8.77497e-19)
(40.6309 2.1675 6.84393e-19)
(40.6476 2.39358 -4.04937e-21)
(40.6235 2.67267 9.65131e-20)
(40.6052 2.95504 -8.69561e-19)
(40.552 3.2694 0)
(40.4909 3.59784 0)
(40.4049 3.9455 1.61039e-18)
(40.3097 4.3118 2.30912e-19)
(40.1939 4.69839 -1.24742e-18)
(40.0651 5.10894 -1.16819e-18)
(39.9068 5.54349 -1.37562e-18)
(39.727 6.00597 -1.17163e-18)
(39.5795 6.55283 -4.94275e-19)
(39.3733 7.10871 -6.58363e-19)
(39.1088 7.63938 -6.74776e-19)
(38.8774 8.22187 2.12432e-18)
(38.6852 8.87605 2.97324e-19)
(38.445 9.52192 -2.80682e-18)
(38.1906 10.1966 2.61566e-18)
(37.9554 10.934 1.92382e-18)
(37.7137 11.7067 -2.43609e-18)
(37.46 12.524 3.59998e-19)
(37.2209 13.3874 -2.06416e-18)
(37.0076 14.3209 1.7242e-18)
(36.8022 15.3095 -1.39559e-18)
(36.6317 16.3523 -9.84861e-19)
(36.4889 17.4708 -1.11592e-18)
(36.3701 18.6563 0)
(36.2959 19.9092 0)
(36.2755 21.225 -1.3933e-19)
(36.3469 22.6402 8.08441e-20)
(36.4914 24.1191 -6.98245e-19)
(36.7161 25.7363 4.48594e-19)
(36.9682 27.3215 2.76967e-18)
(37.4167 29.1654 0)
(35.7357 29.4815 -3.80734e-18)
(24.8516 21.8831 1.61154e-18)
(39.6731 -0.0372726 -5.53526e-20)
(40.297 -0.065725 6.14364e-19)
(40.3489 0.0947768 5.8857e-19)
(40.3971 0.24358 -3.82628e-22)
(40.4583 0.39109 -1.17875e-19)
(40.5356 0.562438 2.45816e-20)
(40.601 0.742416 0)
(40.6663 0.93404 0)
(40.7088 1.13396 0)
(40.7631 1.36659 6.71992e-19)
(40.7725 1.57194 -4.17444e-20)
(40.8292 1.8517 -8.22916e-19)
(40.8636 2.09543 -4.83871e-19)
(40.8713 2.37772 9.5878e-19)
(40.8244 2.69835 5.50337e-19)
(40.8127 2.9969 -8.96911e-20)
(40.7467 3.32249 1.73352e-18)
(40.7094 3.65698 -8.91094e-19)
(40.634 4.01229 -1.05118e-18)
(40.557 4.38381 0)
(40.457 4.77904 -7.32506e-19)
(40.3464 5.19389 1.00184e-18)
(40.2311 5.63369 1.18217e-18)
(40.1059 6.09344 1.39295e-18)
(39.9679 6.57213 1.24661e-18)
(39.7655 7.03111 -1.56071e-19)
(39.6255 7.54078 -2.53712e-19)
(39.5008 8.11162 -7.91798e-19)
(39.2958 8.6963 -3.40882e-19)
(39.0777 9.29503 1.33062e-18)
(38.8943 9.97203 4.47086e-19)
(38.6969 10.6866 0)
(38.4859 11.414 -2.26473e-18)
(38.2812 12.1902 6.17918e-19)
(38.097 13.0132 1.35438e-18)
(37.9212 13.8895 1.94359e-18)
(37.7739 14.7983 -1.05586e-18)
(37.6643 15.7685 -7.85584e-19)
(37.5792 16.7984 3.98934e-19)
(37.5402 17.8741 0)
(37.5409 19.0031 -1.45022e-19)
(37.594 20.2048 0)
(37.712 21.4564 0)
(37.8811 22.7624 8.70424e-19)
(38.1583 24.124 5.80424e-19)
(38.5305 25.6025 -1.73884e-18)
(38.9562 27.1189 -1.79839e-18)
(39.3699 28.6173 0)
(37.4269 28.4417 -2.4127e-18)
(25.194 20.2968 2.63104e-18)
(39.6107 0.00524545 -5.49115e-19)
(40.4458 -0.0390326 3.92704e-21)
(40.4753 0.164768 -6.03905e-19)
(40.5495 0.296062 -5.23501e-19)
(40.588 0.485274 -6.62096e-19)
(40.6455 0.683934 -2.97275e-19)
(40.7092 0.87835 -2.3301e-20)
(40.7685 1.07966 0)
(40.8338 1.30615 4.06726e-19)
(40.8709 1.51954 4.87568e-19)
(40.9309 1.78704 -3.56147e-20)
(40.9252 2.01805 -4.15894e-20)
(40.9462 2.27897 -3.64301e-19)
(40.969 2.54517 -1.41064e-19)
(41.0067 2.79866 -3.65716e-20)
(40.9811 3.11398 -7.6546e-20)
(40.9831 3.42773 -4.8499e-20)
(40.9423 3.77247 1.00449e-18)
(40.9006 4.13184 1.37951e-18)
(40.8363 4.51095 0)
(40.764 4.91204 1.27659e-19)
(40.6737 5.3333 0)
(40.5754 5.77966 0)
(40.4484 6.24896 -2.84722e-19)
(40.3039 6.73866 8.99217e-19)
(40.2049 7.3247 1.02343e-18)
(40.0364 7.91554 -2.15295e-19)
(39.8206 8.48192 1.11451e-18)
(39.6522 9.09247 0)
(39.5259 9.76246 0)
(39.3596 10.4221 6.33385e-19)
(39.189 11.1157 0)
(39.0468 11.8664 5.86833e-19)
(38.9089 12.6422 9.41215e-19)
(38.7726 13.4531 -1.6952e-18)
(38.6659 14.2985 -1.69376e-18)
(38.598 15.2054 1.25982e-18)
(38.552 16.1481 -4.6979e-19)
(38.5597 17.1272 3.06374e-19)
(38.6111 18.1632 3.54965e-19)
(38.7074 19.2432 -2.93594e-19)
(38.8686 20.3608 0)
(39.1017 21.513 0)
(39.4514 22.7321 -6.88653e-19)
(39.8927 23.9794 -1.69949e-18)
(40.4191 25.3204 -6.12483e-19)
(40.9931 26.7139 -3.30782e-18)
(41.371 27.876 3.65287e-18)
(38.9396 27.22 5.38589e-18)
(25.0737 18.4139 0)
(39.5703 0.0216328 -1.62705e-21)
(40.6062 -0.0158388 3.83314e-19)
(40.6197 0.243575 4.14265e-19)
(40.697 0.356616 5.42724e-19)
(40.7573 0.550114 0)
(40.8393 0.738993 6.73515e-20)
(40.9087 0.944609 0)
(40.9843 1.16363 -2.04348e-20)
(41.0341 1.38224 -6.96079e-19)
(41.0914 1.63927 -4.8352e-19)
(41.1231 1.8724 2.84303e-20)
(41.1719 2.14617 3.32803e-20)
(41.2177 2.44752 -3.70372e-20)
(41.2341 2.76973 -3.93239e-19)
(41.2042 3.1156 -8.56406e-19)
(41.2118 3.43673 5.81324e-20)
(41.162 3.79786 -1.11246e-18)
(41.1431 4.15821 8.57122e-20)
(41.0864 4.54635 -4.35942e-19)
(41.031 4.94827 -2.32849e-19)
(40.9581 5.37642 7.51063e-19)
(40.8751 5.82271 0)
(40.7926 6.29445 0)
(40.7045 6.78664 -3.80834e-19)
(40.6046 7.29084 -5.89011e-19)
(40.4328 7.75515 6.64669e-19)
(40.3466 8.28612 -1.7083e-19)
(40.2807 8.88687 0)
(40.1356 9.49768 2.22412e-19)
(39.9854 10.1133 -2.47738e-19)
(39.8786 10.8035 -6.43752e-19)
(39.7675 11.5224 -7.31263e-19)
(39.6528 12.2498 3.13521e-19)
(39.557 13.0187 -2.8272e-19)
(39.4959 13.823 3.14595e-19)
(39.4536 14.6705 0)
(39.4519 15.5322 -3.31608e-19)
(39.5051 16.4408 1.53702e-19)
(39.5946 17.3911 -3.061e-20)
(39.7448 18.3636 -1.28264e-19)
(39.9507 19.3616 4.53555e-19)
(40.2218 20.403 0)
(40.5739 21.4677 0)
(40.9792 22.5456 -1.6308e-18)
(41.4973 23.6418 3.5563e-18)
(42.1032 24.8139 9.54672e-19)
(42.7365 26.0879 2.06707e-18)
(42.8581 26.8702 -4.47323e-18)
(39.7323 25.6345 4.17424e-19)
(24.3213 16.2217 -7.34397e-18)
(39.5658 0.0540154 3.28556e-19)
(40.7721 0.0153261 -9.70177e-20)
(40.8113 0.310644 -4.22728e-19)
(40.8798 0.432133 1.52553e-19)
(40.9264 0.656723 0)
(40.987 0.87201 2.48707e-19)
(41.0588 1.09329 -7.00097e-21)
(41.1252 1.30701 -1.83281e-19)
(41.2045 1.563 3.11477e-19)
(41.2486 1.79415 0)
(41.2977 2.08139 2.03607e-20)
(41.3273 2.34784 1.15113e-19)
(41.3447 2.6157 -1.85769e-19)
(41.3916 2.89468 3.00557e-20)
(41.438 3.18839 3.8452e-19)
(41.4348 3.5325 -4.10805e-20)
(41.4482 3.87302 3.83081e-19)
(41.4332 4.24542 -5.74153e-20)
(41.4108 4.63246 7.26076e-20)
(41.3742 5.03941 1.741e-19)
(41.3287 5.4697 2.51739e-19)
(41.2674 5.91868 -3.15315e-21)
(41.2028 6.39265 1.36715e-19)
(41.114 6.8939 5.50148e-19)
(41.0132 7.41186 0)
(40.9738 8.03709 -5.17489e-19)
(40.8505 8.64783 1.20241e-19)
(40.6829 9.22681 -1.15497e-21)
(40.5811 9.85021 -8.49099e-20)
(40.5292 10.5296 1.6035e-19)
(40.443 11.1874 -2.04486e-19)
(40.3574 11.8734 4.5694e-19)
(40.3104 12.6087 0)
(40.2812 13.3618 0)
(40.2634 14.1388 0)
(40.2881 14.9335 0)
(40.3636 15.7784 4.08144e-19)
(40.4692 16.6391 -7.55582e-19)
(40.6411 17.5139 0)
(40.8635 18.4218 4.1587e-20)
(41.1382 19.3498 -2.30941e-19)
(41.4838 20.2841 -2.29156e-18)
(41.8973 21.2185 1.2576e-18)
(42.4364 22.1882 0)
(43.0653 23.1553 1.43664e-18)
(43.7567 24.1882 -5.23971e-18)
(44.381 25.266 3.73483e-18)
(44.2824 25.6868 2.90759e-18)
(40.1789 23.8951 1.09135e-17)
(22.8873 13.7711 -8.17004e-18)
(39.5879 0.0677117 -3.24184e-19)
(40.9724 0.0276365 -4.69028e-19)
(41.0181 0.374221 3.69778e-21)
(41.1006 0.483466 -1.53553e-19)
(41.1607 0.723597 7.70084e-20)
(41.2431 0.923445 -3.70228e-21)
(41.3101 1.13972 7.75009e-20)
(41.3874 1.39577 1.84016e-19)
(41.4507 1.62334 7.39881e-20)
(41.5217 1.90593 -4.72818e-21)
(41.5843 2.16846 -3.70569e-20)
(41.6262 2.46471 -9.83478e-20)
(41.6885 2.8007 1.59625e-19)
(41.7113 3.15729 0)
(41.7292 3.51496 0)
(41.7442 3.87302 1.12026e-20)
(41.7303 4.26192 1.8644e-19)
(41.7267 4.65532 0)
(41.7001 5.07351 1.93193e-20)
(41.6742 5.50513 -2.78597e-19)
(41.6347 5.96265 -2.77764e-19)
(41.5864 6.43607 3.28817e-20)
(41.5403 6.93061 0)
(41.4906 7.44474 -2.45847e-19)
(41.4254 7.95987 -4.83551e-20)
(41.2914 8.42847 5.39421e-20)
(41.2565 8.96542 0)
(41.2521 9.58014 0)
(41.1713 10.1991 -2.38489e-19)
(41.0933 10.8129 6.29767e-20)
(41.0628 11.4953 2.36288e-19)
(41.0378 12.1958 -3.21814e-20)
(41.0176 12.8946 4.81852e-20)
(41.0228 13.6214 -1.72228e-19)
(41.0752 14.3716 5.3512e-19)
(41.1549 15.1555 3.16136e-19)
(41.2794 15.931 -3.06597e-19)
(41.469 16.7342 5.17478e-19)
(41.6976 17.5612 -1.20622e-18)
(41.9889 18.3868 5.47217e-20)
(42.3388 19.209 -2.80838e-19)
(42.751 20.046 1.18619e-18)
(43.2502 20.885 1.97243e-18)
(43.7891 21.7008 -2.19109e-18)
(44.4222 22.5093 1.42982e-18)
(45.1414 23.4357 0)
(45.5894 24.1881 2.33864e-18)
(45.0002 24.2896 3.67299e-18)
(39.6011 21.7857 -7.46149e-18)
(20.5781 11.0784 -2.29227e-18)
(39.6406 0.0859839 1.24526e-19)
(41.1709 0.0445658 1.806e-19)
(41.2327 0.454241 1.05456e-21)
(41.3301 0.547226 -6.63029e-21)
(41.3629 0.830289 -7.59112e-20)
(41.4351 1.04279 -2.04827e-20)
(41.52 1.28788 -3.63239e-20)
(41.5867 1.51989 -2.79817e-20)
(41.6803 1.81996 -7.00064e-20)
(41.7347 2.06449 4.83336e-20)
(41.7872 2.36594 -2.27576e-20)
(41.8519 2.65934 -3.88037e-20)
(41.8783 2.9366 8.42744e-20)
(41.9548 3.2222 -2.1011e-23)
(42.0009 3.56287 5.51588e-20)
(42.0377 3.92145 -6.43165e-20)
(42.0698 4.2919 -4.72985e-20)
(42.0873 4.6883 0)
(42.0935 5.10211 0)
(42.091 5.53567 0)
(42.0796 5.99121 -1.9061e-22)
(42.0547 6.4645 -6.37475e-20)
(42.0284 6.95911 8.07181e-20)
(41.9802 7.48034 -1.62138e-22)
(41.9396 8.03857 0)
(41.9548 8.68515 0)
(41.8867 9.30451 -9.76381e-20)
(41.7643 9.87427 2.58253e-20)
(41.7209 10.4872 -9.91039e-20)
(41.7393 11.1561 1.16668e-19)
(41.7314 11.7941 2.99015e-20)
(41.7244 12.4479 3.17865e-19)
(41.7621 13.1381 -1.18153e-19)
(41.8289 13.8378 5.36523e-19)
(41.9084 14.5471 -2.97768e-19)
(42.0372 15.2524 -1.15084e-19)
(42.2236 15.996 1.51891e-19)
(42.4373 16.7382 5.36088e-19)
(42.719 17.4696 4.98309e-19)
(43.048 18.2102 9.07949e-19)
(43.4236 18.9529 -2.59233e-19)
(43.8676 19.6782 1.82318e-18)
(44.359 20.371 -2.0279e-18)
(44.9741 21.0723 0)
(45.6741 21.7699 0)
(46.4106 22.5889 0)
(46.6306 22.9639 0)
(45.4624 22.763 0)
(38.5094 19.5643 -4.26953e-18)
(17.3895 8.25439 7.01429e-18)
(39.715 0.108045 -1.25178e-19)
(41.429 0.0466002 0)
(41.472 0.509765 0)
(41.5807 0.580241 6.0232e-21)
(41.6408 0.873444 -4.64843e-21)
(41.7327 1.0952 2.3811e-20)
(41.8217 1.32424 -4.1059e-20)
(41.92 1.60137 2.80709e-20)
(41.9687 1.82972 -1.18522e-19)
(42.0639 2.14059 -5.41449e-20)
(42.1459 2.42088 5.87701e-20)
(42.2182 2.7429 -1.89319e-19)
(42.3061 3.12152 -2.00032e-19)
(42.3502 3.50741 0)
(42.4223 3.86552 -5.66023e-20)
(42.4523 4.26423 7.98306e-20)
(42.4737 4.67789 5.36398e-22)
(42.4989 5.10199 2.42654e-19)
(42.5119 5.54735 -3.0197e-19)
(42.5207 6.00817 0)
(42.5179 6.49017 0)
(42.5091 6.98682 -2.17375e-19)
(42.5032 7.50102 1.72649e-19)
(42.4936 8.02757 2.98512e-19)
(42.4519 8.53032 6.09044e-20)
(42.366 9.00449 -2.80179e-19)
(42.377 9.5426 3.55544e-19)
(42.4347 10.1581 -4.32292e-19)
(42.4194 10.7664 2.0682e-19)
(42.4048 11.3529 -1.81348e-19)
(42.4344 11.9984 1.08592e-19)
(42.4802 12.6565 -2.78131e-19)
(42.5373 13.303 3.07353e-19)
(42.6176 13.9588 -4.10273e-19)
(42.7528 14.6232 0)
(42.9182 15.3138 -4.80798e-19)
(43.1209 15.9739 -4.52311e-19)
(43.3913 16.6392 1.51636e-19)
(43.6945 17.314 1.18913e-18)
(44.0516 17.9707 -1.15247e-18)
(44.4632 18.5995 -2.31345e-19)
(44.9225 19.2178 -2.12035e-18)
(45.4743 19.8284 5.02315e-18)
(46.0497 20.3943 3.63696e-19)
(46.712 20.9786 4.24276e-19)
(47.2575 21.5129 -2.06366e-18)
(47.1823 21.6841 0)
(45.0005 20.9954 3.79881e-18)
(35.9559 16.9027 -2.02808e-18)
(13.1089 5.2877 0)
(39.8051 0.131455 -3.76733e-22)
(41.6949 0.0646126 -1.52883e-22)
(41.7503 0.542368 1.28683e-19)
(41.8266 0.63132 0)
(41.8899 0.961016 2.47948e-21)
(41.9647 1.18916 1.20198e-19)
(42.0627 1.44574 0)
(42.1498 1.68468 -1.75263e-19)
(42.2814 2.01008 1.29273e-19)
(42.3351 2.27157 -1.15856e-20)
(42.4267 2.59686 -2.87008e-19)
(42.4988 2.89318 1.23855e-20)
(42.565 3.17618 1.34841e-19)
(42.6579 3.49423 0)
(42.7281 3.87475 0)
(42.8051 4.23969 0)
(42.8668 4.63269 3.25801e-19)
(42.9243 5.04888 -2.44814e-19)
(42.9642 5.48941 5.71083e-19)
(43.0004 5.9464 -5.60833e-20)
(43.0286 6.42143 1.27759e-19)
(43.0452 6.91485 1.46049e-19)
(43.0591 7.42643 -6.99555e-19)
(43.0497 7.9619 -5.60468e-19)
(43.0649 8.5404 0)
(43.1327 9.19247 2.87742e-19)
(43.1227 9.81426 -7.69179e-19)
(43.0404 10.3683 4.25275e-19)
(43.0398 10.9539 -2.52689e-19)
(43.1136 11.5946 1.47547e-19)
(43.1672 12.1956 -2.0194e-19)
(43.2159 12.7931 7.8326e-19)
(43.3094 13.413 -8.12834e-19)
(43.4406 14.0366 1.20138e-18)
(43.5786 14.6583 4.97975e-19)
(43.7632 15.2507 -1.1822e-18)
(44.0082 15.8702 1.5092e-18)
(44.2694 16.4787 -9.87087e-19)
(44.5913 17.0543 3.27052e-20)
(44.9525 17.616 0)
(45.3472 18.1697 1.70156e-18)
(45.8093 18.6969 1.18768e-18)
(46.2893 19.1632 1.42441e-19)
(46.8867 19.631 -3.40455e-18)
(47.6084 20.1603 -1.21559e-19)
(47.8683 20.3696 -2.40569e-18)
(47.4009 20.2773 0)
(43.9719 18.9691 3.91083e-18)
(32.7111 14.0199 -6.57909e-18)
(7.95329 2.23543 0)
(39.9169 0.152095 0)
(41.9732 0.0712347 0)
(42.0426 0.554208 -2.28238e-20)
(42.1307 0.632948 6.65904e-21)
(42.2001 0.969951 -1.5935e-19)
(42.3109 1.18566 -1.23204e-19)
(42.3986 1.43888 0)
(42.5234 1.72788 1.75666e-19)
(42.6028 1.95611 -3.03148e-19)
(42.7253 2.28436 0)
(42.8203 2.57968 4.96642e-19)
(42.9577 2.93643 -7.54316e-20)
(43.057 3.34677 3.08315e-20)
(43.1487 3.73013 -3.43748e-20)
(43.2694 4.10936 0)
(43.3322 4.54712 0)
(43.3971 4.98244 -1.27238e-19)
(43.4581 5.43531 -2.75575e-19)
(43.5126 5.90197 1.12121e-19)
(43.5608 6.38605 -4.41947e-20)
(43.5967 6.88906 1.0069e-19)
(43.6252 7.40573 -5.73428e-20)
(43.6562 7.93337 4.46432e-19)
(43.6833 8.46589 1.79715e-19)
(43.673 8.96798 -3.49835e-19)
(43.6191 9.43426 -5.1607e-19)
(43.6518 9.94826 2.97071e-19)
(43.7582 10.5475 5.07036e-19)
(43.8031 11.1405 0)
(43.8341 11.6865 0)
(43.8961 12.2734 0)
(43.9825 12.8731 -5.62787e-19)
(44.085 13.4536 -4.13303e-19)
(44.2002 14.0247 -3.95865e-19)
(44.3728 14.5864 6.45977e-19)
(44.5772 15.1737 7.85629e-19)
(44.8015 15.7145 -3.32413e-19)
(45.0905 16.2366 1.10009e-18)
(45.403 16.757 -6.43294e-19)
(45.7529 17.2523 -8.61809e-19)
(46.1547 17.7029 -1.05933e-18)
(46.5808 18.1197 1.18114e-18)
(47.1094 18.5343 0)
(47.7072 18.9535 1.82358e-18)
(48.1162 19.1989 -9.69099e-19)
(48.1183 19.2124 1.26374e-18)
(46.8583 18.7248 0)
(41.6306 16.5842 -1.87002e-18)
(27.7329 10.5053 1.08033e-18)
(4.67402 0.437552 0)
(40.0444 0.167256 -1.11858e-19)
(42.2642 0.0675395 0)
(42.3478 0.574886 -2.63201e-19)
(42.4247 0.638509 1.83893e-19)
(42.4611 1.01026 1.55712e-19)
(42.5621 1.21084 -6.98333e-21)
(42.6871 1.49627 7.77191e-21)
(42.8015 1.77011 0)
(42.9519 2.08721 2.92392e-19)
(43.06 2.37053 -2.24616e-19)
(43.1777 2.69057 -2.093e-19)
(43.2556 2.9895 2.63299e-19)
(43.3941 3.2865 -1.89963e-19)
(43.5132 3.65454 -4.87075e-20)
(43.6089 4.04089 2.78069e-20)
(43.7283 4.41201 0)
(43.8261 4.83105 -3.04489e-19)
(43.9252 5.26607 3.52073e-19)
(44.0041 5.72959 6.72176e-20)
(44.0807 6.2073 -2.32921e-21)
(44.1472 6.70107 6.88379e-20)
(44.2036 7.21063 0)
(44.2559 7.73452 9.63931e-20)
(44.2814 8.27943 3.9434e-19)
(44.334 8.8639 4.43213e-19)
(44.445 9.51383 5.18847e-19)
(44.4887 10.1366 0)
(44.4281 10.6682 -3.60019e-19)
(44.441 11.2094 -7.92086e-19)
(44.5423 11.8129 4.27598e-19)
(44.6288 12.3749 -9.19914e-19)
(44.7024 12.9074 -4.46991e-19)
(44.8133 13.447 7.85326e-19)
(44.9685 13.9856 -2.83635e-19)
(45.1228 14.5211 -6.51537e-19)
(45.31 15.0011 -3.29613e-19)
(45.5609 15.4953 -4.6873e-19)
(45.8137 15.9782 0)
(46.1126 16.4159 -7.84271e-19)
(46.4457 16.8169 1.73897e-18)
(46.7913 17.2002 1.07228e-18)
(47.2134 17.5665 -1.27185e-18)
(47.6429 17.8782 1.61101e-18)
(48.1797 18.1883 -8.18844e-19)
(48.3342 18.2467 2.13536e-18)
(47.9782 18.0475 -9.80394e-21)
(45.5402 17.0245 0)
(38.1096 13.8936 3.79089e-18)
(21.9178 6.88576 -3.19343e-18)
(2.25316 -0.241167 -1.13703e-18)
(40.1828 0.189878 1.1195e-19)
(42.5551 0.0816234 -1.77147e-19)
(42.6479 0.581343 1.53537e-19)
(42.7485 0.613583 -1.80736e-19)
(42.8105 0.962842 -1.35898e-19)
(42.9384 1.18032 -8.89382e-21)
(43.0534 1.42316 5.07733e-21)
(43.1795 1.70479 0)
(43.3119 1.96874 -2.40434e-19)
(43.4523 2.27388 3.70907e-19)
(43.616 2.61493 0)
(43.8047 2.97887 -2.36418e-20)
(43.9225 3.39662 4.10867e-21)
(44.0642 3.76683 2.51651e-19)
(44.2232 4.1744 -3.67971e-19)
(44.3631 4.6498 -1.91513e-21)
(44.4747 5.10522 4.90693e-20)
(44.5804 5.5833 0)
(44.6761 6.07205 -1.7607e-19)
(44.7613 6.57949 3.92083e-19)
(44.8348 7.10265 -4.47438e-20)
(44.8968 7.63792 0)
(44.9533 8.18054 0)
(45.0032 8.71957 -1.88133e-19)
(45.0228 9.22815 8.37798e-20)
(44.9869 9.68778 -6.13513e-19)
(45.0105 10.168 2.21862e-19)
(45.135 10.7378 -1.26499e-19)
(45.2208 11.3151 3.90482e-19)
(45.2701 11.8183 1.72641e-19)
(45.3297 12.3374 5.22016e-19)
(45.4197 12.8762 -5.67108e-19)
(45.5322 13.3938 3.65412e-19)
(45.6403 13.8871 -3.64371e-19)
(45.8023 14.3466 -4.20575e-19)
(46.004 14.8374 -4.43626e-19)
(46.2016 15.2787 0)
(46.4562 15.6785 1.06921e-18)
(46.7283 16.0626 -3.97503e-19)
(47.0139 16.4264 -9.46187e-19)
(47.3581 16.7436 1.12463e-18)
(47.7 17.0096 -2.86755e-20)
(48.2301 17.337 -7.94116e-19)
(48.4445 17.4436 -1.94586e-20)
(48.3356 17.3635 -1.14244e-18)
(47.13 16.845 -2.723e-18)
(42.9499 15.2178 1.5279e-18)
(32.6545 11.179 0)
(12.7881 3.28151 -2.01565e-18)
(0.171708 -0.208655 3.88394e-18)
(40.3609 0.165208 3.42463e-22)
(42.8495 0.0766578 1.78107e-19)
(42.9347 0.584281 -6.01016e-20)
(43.0181 0.602432 -2.00459e-21)
(43.093 0.959943 1.36164e-19)
(43.1937 1.13646 0)
(43.3614 1.42775 0)
(43.5053 1.68815 -7.72587e-21)
(43.6726 1.98614 4.18315e-19)
(43.8448 2.29543 -1.49762e-19)
(43.9741 2.57413 1.24646e-20)
(44.1057 2.89717 -2.85012e-20)
(44.3066 3.20742 1.28353e-19)
(44.4757 3.6168 -1.302e-19)
(44.6141 4.00425 5.31768e-19)
(44.7662 4.38172 -1.17372e-19)
(44.9086 4.82525 1.36922e-19)
(45.0518 5.28272 3.69773e-20)
(45.1757 5.76828 -3.88204e-19)
(45.293 6.26736 -2.55007e-19)
(45.3976 6.78338 1.98126e-21)
(45.4879 7.31329 -6.43201e-20)
(45.571 7.85105 0)
(45.626 8.40518 -2.72193e-19)
(45.6934 8.98895 1.59405e-21)
(45.8261 9.63818 5.369e-20)
(45.9092 10.273 6.61215e-20)
(45.857 10.7966 1.68161e-19)
(45.8474 11.2902 0)
(45.9335 11.85 1.06463e-19)
(46.015 12.3795 5.90955e-19)
(46.08 12.8557 5.28343e-19)
(46.1679 13.3211 -2.71178e-19)
(46.3088 13.7788 5.64669e-19)
(46.4466 14.2456 -4.60444e-19)
(46.5916 14.6359 -2.78474e-19)
(46.8046 15.0203 0)
(47.0095 15.3988 -7.16783e-19)
(47.2382 15.7374 -4.49834e-19)
(47.5071 16.022 5.02453e-19)
(47.7607 16.2772 -5.94562e-19)
(48.1825 16.5936 6.66961e-19)
(48.3821 16.7303 0)
(48.3782 16.7373 4.87338e-19)
(47.7793 16.4925 0)
(45.3741 15.5889 6.68156e-19)
(38.8083 13.1717 -1.50634e-18)
(24.881 7.9837 8.4471e-19)
(5.82188 1.21426 0)
(-1.01452 -0.0809337 2.5283e-19)
(40.4551 0.117447 5.19378e-23)
(43.1409 0.0189646 6.0163e-23)
(43.1915 0.488754 6.17896e-20)
(43.2995 0.503009 3.11389e-22)
(43.4197 0.836471 2.68614e-21)
(43.5715 1.01867 4.2013e-22)
(43.6808 1.23607 -4.67649e-22)
(43.883 1.51476 1.14889e-21)
(44.0488 1.77536 -1.55728e-19)
(44.227 2.07796 -3.32346e-21)
(44.4627 2.43406 -1.86045e-21)
(44.6942 2.79579 4.25915e-21)
(44.8593 3.20326 1.4422e-19)
(45.0479 3.56854 -1.71868e-19)
(45.2738 4.01366 -2.12138e-19)
(45.4842 4.51144 1.17263e-19)
(45.6522 4.98911 -1.32443e-19)
(45.8115 5.4908 -5.90695e-21)
(45.9547 6.0066 -6.86692e-21)
(46.0796 6.54352 0)
(46.1883 7.09475 -9.21154e-21)
(46.279 7.65534 -4.97876e-21)
(46.3542 8.22148 5.56583e-21)
(46.4121 8.78124 0)
(46.449 9.31203 0)
(46.4188 9.78145 2.44663e-19)
(46.4027 10.2349 0)
(46.5033 10.7715 -1.68381e-19)
(46.6046 11.3457 0)
(46.6463 11.8252 7.96198e-21)
(46.6667 12.2816 -2.77238e-19)
(46.7206 12.7619 1.9643e-20)
(46.8101 13.2275 -3.73905e-19)
(46.8767 13.6645 3.33007e-20)
(46.9841 14.0368 2.06715e-19)
(47.1522 14.444 3.14554e-19)
(47.2936 14.8165 -1.08566e-20)
(47.4759 15.1339 0)
(47.6823 15.4134 -7.31895e-21)
(47.8712 15.6843 8.4973e-21)
(48.1837 15.9684 0)
(48.4152 16.1642 -1.03948e-20)
(48.4584 16.1964 -5.03421e-20)
(48.2046 16.1477 -4.28676e-19)
(46.6845 15.6322 -8.73028e-21)
(42.2614 14.0931 0)
(32.188 10.5167 0)
(14.4393 4.11275 1.15573e-19)
(1.77284 0.404927 -1.14437e-19)
(-1.59668 -0.0540051 2.5721e-19)
(40.5532 0.129445 1.31426e-19)
(43.392 -0.0410511 1.46685e-19)
(43.4801 0.412428 8.18304e-20)
(43.5614 0.416649 9.72792e-20)
(43.664 0.762178 1.03891e-19)
(43.8081 0.888032 -1.24791e-19)
(44.0012 1.18727 0)
(44.177 1.4072 0)
(44.4041 1.69132 1.0319e-19)
(44.6132 1.96414 3.32305e-21)
(44.7773 2.24341 -1.34544e-19)
(44.9802 2.56788 -9.62067e-21)
(45.2507 2.90365 -1.86645e-19)
(45.4807 3.32364 2.20299e-19)
(45.6636 3.7032 2.81807e-19)
(45.8598 4.09577 0)
(46.0523 4.55998 0)
(46.251 5.0436 5.91053e-21)
(46.4274 5.56054 6.86462e-21)
(46.5897 6.09045 -2.95501e-19)
(46.734 6.63824 9.20957e-21)
(46.8576 7.20054 0)
(46.9645 7.76888 0)
(47.0414 8.34596 -6.13409e-20)
(47.1068 8.93801 -2.99232e-19)
(47.2312 9.59254 8.78279e-20)
(47.3336 10.2601 0)
(47.2831 10.8119 -2.20134e-19)
(47.2203 11.2761 0)
(47.2436 11.7937 -7.95924e-21)
(47.2833 12.3056 0)
(47.3116 12.7495 0)
(47.3379 13.158 1.02606e-19)
(47.427 13.5414 1.19282e-19)
(47.5319 13.9578 0)
(47.6059 14.2928 0)
(47.7493 14.5935 1.08504e-20)
(47.8928 14.8875 0)
(48.0285 15.1691 7.31402e-21)
(48.2548 15.4183 -2.81573e-19)
(48.4674 15.6577 2.98638e-19)
(48.5224 15.7289 2.17243e-20)
(48.3644 15.7624 1.27722e-20)
(47.3384 15.4799 -4.78822e-19)
(44.2275 14.4495 -2.7538e-19)
(36.8688 11.9351 1.5721e-18)
(22.9987 7.13179 -7.03971e-19)
(5.80151 1.52791 -8.07026e-19)
(-0.877018 0.189237 6.66764e-19)
(-1.79023 -0.0311376 0)
(40.5862 0.0660978 -1.29621e-19)
(43.5639 -0.0764137 1.74447e-19)
(43.6982 0.302345 -8.03198e-20)
(43.8221 0.289844 1.15712e-19)
(43.9339 0.575724 -1.10195e-19)
(44.1231 0.694599 1.28423e-19)
(44.2826 0.898764 1.01833e-20)
(44.4955 1.13574 -1.13381e-20)
(44.7174 1.35983 -8.90598e-20)
(44.9777 1.66314 -1.56684e-20)
(45.277 2.00119 1.43072e-19)
(45.5508 2.34059 3.78446e-19)
(45.7709 2.72776 -2.48332e-19)
(46.0356 3.10599 -2.01476e-19)
(46.3453 3.58663 -9.29871e-19)
(46.6003 4.08005 4.3945e-20)
(46.8447 4.57578 -4.90388e-20)
(47.0757 5.109 4.98121e-19)
(47.2973 5.66462 6.93818e-20)
(47.4704 6.2416 2.17638e-19)
(47.6212 6.83402 0)
(47.7416 7.44052 0)
(47.8346 8.05199 0)
(47.8964 8.65784 0)
(47.9356 9.24044 2.97146e-19)
(47.9014 9.75741 -7.67097e-19)
(47.8203 10.2098 0)
(47.8523 10.7214 7.11935e-19)
(47.9342 11.3111 0)
(47.9452 11.8041 0)
(47.896 12.2212 -7.08558e-19)
(47.8748 12.6501 3.87637e-19)
(47.9138 13.0713 -8.74727e-19)
(47.921 13.4775 2.53e-19)
(47.9354 13.7862 0)
(48.0471 14.1159 0)
(48.1287 14.4373 3.77752e-19)
(48.2211 14.7163 -1.29167e-18)
(48.3849 14.9425 0)
(48.5539 15.2237 -8.23424e-19)
(48.6148 15.3382 1.239e-18)
(48.5216 15.4091 -1.47959e-18)
(47.8144 15.2631 8.36723e-19)
(45.63 14.5924 -9.7499e-19)
(40.0589 12.7776 2.463e-18)
(28.844 9.06559 -2.16029e-18)
(10.6819 3.09265 1.39077e-18)
(1.1371 0.659533 -3.09797e-18)
(-2.04547 0.156758 3.65818e-18)
(-1.67179 0.0692849 -2.35616e-18)
(40.5435 0.0172777 -3.0559e-19)
(43.6975 -0.126733 2.36464e-20)
(43.8834 0.21227 0)
(43.9845 0.147917 -2.11341e-19)
(44.0839 0.444856 -5.4076e-19)
(44.2848 0.507864 1.81142e-20)
(44.5214 0.747809 0)
(44.739 0.947417 0)
(45.016 1.17504 -3.10377e-20)
(45.2657 1.39664 3.45752e-20)
(45.4992 1.66446 -7.01735e-19)
(45.7979 1.98671 4.53503e-19)
(46.143 2.32255 4.46109e-19)
(46.4389 2.72236 -5.82631e-19)
(46.6803 3.09415 6.19097e-19)
(46.9615 3.51463 9.87354e-20)
(47.232 4.00616 -1.0621e-18)
(47.4836 4.51927 -1.61222e-18)
(47.7048 5.06696 0)
(47.9261 5.63945 7.55154e-19)
(48.121 6.23806 8.74354e-19)
(48.283 6.85471 0)
(48.4191 7.47801 -1.15871e-18)
(48.5165 8.10955 0)
(48.58 8.74286 0)
(48.6705 9.42246 7.64738e-19)
(48.773 10.1495 5.0773e-19)
(48.7189 10.7803 1.11457e-18)
(48.5833 11.261 0)
(48.4969 11.749 0)
(48.4557 12.2577 3.36215e-19)
(48.4231 12.6982 4.13119e-19)
(48.3539 13.0788 1.43411e-18)
(48.3456 13.3908 5.96107e-21)
(48.4107 13.7546 8.47685e-21)
(48.4102 14.0595 -1.35638e-18)
(48.4621 14.306 -1.48465e-20)
(48.5681 14.5251 1.7348e-18)
(48.6776 14.8242 9.9126e-19)
(48.757 14.9813 5.51024e-19)
(48.7001 15.0617 1.30402e-18)
(48.182 15.0124 2.93369e-20)
(46.5506 14.5805 -1.67645e-18)
(42.105 13.2096 -9.59958e-19)
(32.6809 10.1807 -2.71075e-18)
(16.4262 4.9166 3.0347e-18)
(3.48352 1.27325 -1.35284e-18)
(-1.3291 0.481476 0)
(-2.4679 0.245431 0)
(-1.48643 0.151271 4.63737e-19)
(40.4362 -0.0404293 9.43608e-19)
(43.8197 -0.208404 3.81955e-19)
(43.9791 0.0624536 -4.12985e-19)
(44.1103 -0.0460465 1.49145e-20)
(44.2523 0.193139 1.07655e-18)
(44.4693 0.238571 -1.93105e-20)
(44.6896 0.384695 0)
(44.9594 0.568039 -9.00408e-19)
(45.2438 0.784773 -3.35127e-20)
(45.5797 1.03161 -2.41129e-21)
(45.9527 1.30738 1.49874e-18)
(46.262 1.61686 -7.73884e-19)
(46.5671 1.97762 3.94483e-21)
(46.9314 2.35959 5.07451e-19)
(47.3237 2.83785 0)
(47.6547 3.33227 0)
(47.9963 3.8515 8.21284e-19)
(48.3026 4.41318 1.25448e-18)
(48.6084 5.00666 0)
(48.8858 5.63486 -7.52749e-19)
(49.1017 6.29098 -8.71403e-19)
(49.2678 6.96448 -2.69363e-19)
(49.3925 7.65327 1.67848e-19)
(49.4677 8.34352 1.12043e-18)
(49.5038 9.01846 3.93952e-19)
(49.4703 9.63828 4.52236e-19)
(49.3189 10.1502 -1.46912e-18)
(49.245 10.6645 -1.08473e-18)
(49.2611 11.2845 1.33989e-18)
(49.2199 11.838 -1.4918e-18)
(49.0781 12.2647 0)
(48.936 12.6603 0)
(48.8821 13.0274 3.16684e-20)
(48.8272 13.4152 -1.10677e-18)
(48.7167 13.6843 1.27013e-18)
(48.7333 13.929 2.12878e-18)
(48.7792 14.1763 -7.86603e-19)
(48.8262 14.4658 -1.77866e-18)
(48.9232 14.6483 -1.99065e-18)
(48.8803 14.7405 -1.14771e-18)
(48.4595 14.743 -2.25978e-20)
(47.1606 14.4781 1.46632e-18)
(43.5549 13.4375 0)
(35.512 10.9182 9.50658e-19)
(20.9569 6.28167 1.06741e-18)
(6.10494 1.97838 1.18725e-18)
(-0.281632 0.731419 3.98932e-18)
(-2.35211 0.417808 -1.48635e-18)
(-2.49555 0.329124 0)
(-1.27193 0.188707 0)
(40.2509 -0.0600585 6.27194e-21)
(43.8429 -0.288056 -7.25223e-19)
(44.026 -0.0808094 4.25777e-19)
(44.1615 -0.237151 -9.78909e-19)
(44.316 0.00141924 -5.86376e-19)
(44.5318 0.020508 -1.16089e-21)
(44.8125 0.188367 2.37056e-20)
(45.1124 0.307025 8.38933e-19)
(45.4092 0.456753 6.63976e-20)
(45.7166 0.656886 8.43954e-20)
(46.0335 0.890374 -7.45682e-19)
(46.4359 1.15422 -1.12035e-19)
(46.8523 1.4588 -1.1337e-18)
(47.2279 1.82352 -1.35195e-18)
(47.571 2.189 2.00785e-19)
(47.9599 2.62468 -2.23963e-19)
(48.3307 3.12465 0)
(48.6761 3.66316 -1.33405e-18)
(48.9856 4.25209 0)
(49.2602 4.88124 0)
(49.5191 5.54432 0)
(49.7449 6.2378 -5.95168e-19)
(49.9295 6.94773 1.94537e-18)
(50.0626 7.66942 -1.46411e-18)
(50.1512 8.39484 0)
(50.2014 9.13994 -4.98465e-19)
(50.2876 9.95335 -1.79574e-18)
(50.2382 10.7263 -2.63015e-18)
(50.0333 11.3082 -2.02496e-18)
(49.7948 11.8097 1.40822e-18)
(49.6216 12.3292 -1.70992e-18)
(49.4958 12.7876 9.50231e-19)
(49.3054 13.185 2.15571e-18)
(49.1229 13.4329 0)
(49.1081 13.7092 1.36447e-18)
(49.0556 13.9633 -2.84978e-18)
(49.0228 14.1917 -2.09966e-20)
(49.1017 14.3448 1.74743e-18)
(49.0363 14.4299 9.93049e-19)
(48.6965 14.4632 0)
(47.6353 14.3107 1.30191e-18)
(44.7212 13.5341 -1.49924e-18)
(37.7274 11.4197 3.36915e-18)
(24.3461 7.27815 0)
(8.44633 2.72626 -4.20357e-18)
(1.07087 1.15412 1.16568e-18)
(-1.84608 0.791978 -1.30567e-18)
(-2.71917 0.682931 -1.461e-18)
(-2.36488 0.525928 3.25043e-18)
(-1.07181 0.229774 1.24191e-21)
(39.9829 -0.128368 -6.50106e-19)
(43.7868 -0.359723 7.33724e-19)
(43.9566 -0.244673 -8.43543e-19)
(44.157 -0.400154 1.96013e-18)
(44.3796 -0.30273 -1.18465e-18)
(44.6066 -0.32067 8.48304e-20)
(44.8434 -0.204959 -8.51779e-19)
(45.1594 -0.116806 0)
(45.53 0.0371338 -1.14503e-18)
(45.942 0.205455 1.45998e-18)
(46.359 0.410359 7.27302e-21)
(46.7393 0.686908 -1.1729e-19)
(47.1525 0.992032 1.1299e-18)
(47.6162 1.33928 -7.37076e-20)
(48.1041 1.79363 1.48577e-18)
(48.5541 2.26838 2.38938e-19)
(49.0026 2.79461 0)
(49.4164 3.37292 1.32807e-18)
(49.8382 4.00448 3.3749e-18)
(50.2214 4.68799 0)
(50.5639 5.40936 0)
(50.8363 6.17255 0)