/*--------------------------------*- C++ -*----------------------------------*\
| =========                 |                                                 |
| \\      /  F ield         | OpenFOAM: The Open Source CFD Toolbox           |
|  \\    /   O peration     | Version:  v1912                                 |
|   \\  /    A nd           | Website:  www.openfoam.com                      |
|    \\/     M anipulation  |                                                 |
\*---------------------------------------------------------------------------*/
FoamFile
{
    version     2.0;
    format      ascii;
    class       volScalarField;
    location    "0.44";
    object      p;
}
// * * * * * * * * * * * * * * * * * * * * * * * * * * * * * * * * * * * * * //

dimensions      [0 2 -2 0 0 0 0];


internalField   nonuniform List<scalar> 
6600
(
506.681
502.502
500.619
499.406
498.761
498.676
498.89
499.317
500.025
501.099
502.57
504.475
506.813
509.607
512.818
516.363
520.271
524.53
529.201
534.198
539.585
545.256
551.209
557.433
564.07
570.879
577.821
584.802
591.657
598.287
604.635
610.598
615.772
619.943
623.004
624.673
624.58
622.377
617.454
609.123
597.065
580.947
560
533.175
499.654
458.777
410.473
354.083
286.474
213.875
504.335
500.578
499.323
498.205
497.598
497.474
497.552
497.871
498.532
499.559
500.982
502.806
504.972
507.496
510.421
513.762
517.526
521.572
525.863
530.381
535.211
540.337
545.628
550.966
556.526
562.28
567.938
573.759
579.456
584.896
589.77
593.892
597.117
598.992
599.394
598.22
595.078
589.581
581.197
569.27
553.179
532.503
506.794
475.248
436.692
390.365
336.217
274.122
202.518
127.658
501.541
498.055
497.513
496.615
496.11
495.973
496.112
496.511
497.264
498.375
499.83
501.632
503.771
506.176
508.85
511.828
515.2
518.996
523.066
527.284
531.611
536.102
540.772
545.56
550.228
555.018
559.636
563.949
567.949
571.59
574.709
576.942
577.923
577.395
575.169
571.053
564.628
555.663
543.621
527.788
507.622
482.589
452.1
415.485
372.087
320.998
261.973
195.805
123.085
50.3524
498.547
495.298
495.418
494.656
494.311
494.197
494.352
494.849
495.7
496.895
498.4
500.184
502.264
504.623
507.264
510.196
513.216
516.503
520.062
523.93
527.974
531.987
535.825
539.802
543.677
547.258
550.809
553.87
556.391
558.139
559.014
558.956
557.61
554.625
549.687
542.574
532.928
520.245
504.238
484.434
460.2
431.003
396.311
355.488
308.047
253.268
190.961
122.624
50.3556
-17.8485
495.453
492.482
492.933
491.964
491.807
491.802
491.998
492.567
493.479
494.711
496.234
498.008
499.999
502.235
504.677
507.406
510.335
513.357
516.466
519.619
522.949
526.467
529.856
532.936
535.891
538.582
540.69
542.238
543.013
542.903
541.756
539.242
535.372
529.787
522.145
512.076
499.183
483.158
463.6
440.022
412.009
379.113
340.864
296.843
246.667
189.694
125.886
57.1531
-13.0395
-74.9826
492.334
489.48
489.943
488.708
488.6
488.652
488.953
489.546
490.424
491.585
492.999
494.666
496.555
498.681
500.976
503.346
505.879
508.523
511.314
514.082
516.67
519.17
521.686
523.95
525.678
527.079
528.038
528.293
527.447
525.395
522.082
517.395
511.015
502.744
492.354
479.46
463.58
444.342
421.58
394.967
364.051
328.443
287.829
241.882
190.352
132.845
69.2363
1.32825
-65.5108
-119.267
488.931
486.081
486.472
485.066
485.046
485.061
485.377
485.974
486.796
487.819
489.037
490.462
492.082
493.854
495.81
497.893
500.032
502.154
504.22
506.279
508.325
510.114
511.568
512.784
513.636
513.554
512.87
511.27
508.716
504.981
499.763
492.858
484.184
473.553
460.615
445.045
426.599
405.009
379.823
350.734
317.639
280.33
238.518
191.995
140.541
83.805
21.8043
-43.5053
-105.286
-149.336
485.129
482.127
482.461
481.149
481.157
481.118
481.357
481.861
482.568
483.435
484.47
485.643
486.954
488.364
489.817
491.335
492.917
494.539
496.063
497.338
498.342
499.081
499.454
499.234
498.678
497.49
495.407
492.224
487.874
482.216
475.131
466.379
455.76
442.941
427.76
410.056
389.474
365.809
339.01
308.75
274.68
236.692
194.767
148.763
98.5073
43.677
-15.5144
-76.75
-132.513
-165.953
480.701
477.82
477.954
476.709
476.692
476.594
476.782
477.188
477.742
478.442
479.278
480.201
481.161
482.176
483.204
484.149
485.009
485.728
486.339
486.874
487.053
486.827
486.161
484.887
482.789
480.039
476.175
471.374
465.428
458.14
449.261
438.723
426.281
411.745
394.855
375.448
353.49
328.724
300.827
269.772
235.607
198.15
157.243
112.896
64.9339
12.8938
-42.7981
-99.0578
-147.916
-171.386
475.549
472.822
472.808
471.545
471.446
471.23
471.349
471.665
472.085
472.622
473.242
473.909
474.584
475.192
475.734
476.168
476.461
476.517
476.316
475.738
474.738
473.31
471.336
468.883
465.591
461.488
456.491
450.229
442.598
433.602
423.165
411.043
397.026
381.001
362.9
342.504
319.554
294.122
266.222
235.548
201.983
165.644
126.561
84.6617
39.9324
-7.99715
-59.44
-110.917
-153.786
-169.724
469.424
466.873
466.86
465.627
465.57
465.25
465.24
465.398
465.626
465.92
466.248
466.56
466.866
467.107
467.188
467.094
466.697
466.021
465.051
463.72
461.961
459.633
456.57
452.831
448.334
442.584
435.995
428.405
419.578
409.308
397.44
383.91
368.763
351.776
332.738
311.66
288.588
263.287
235.641
205.792
173.786
139.515
102.967
64.2772
23.5114
-19.8844
-65.7871
-111.627
-149.738
-163.212
462.455
460.186
460.152
459.067
459.107
458.676
458.581
458.559
458.521
458.51
458.491
458.419
458.241
457.975
457.562
456.974
456.175
455.002
453.176
450.824
447.97
444.667
440.718
435.864
430.223
423.791
416.066
407.084
396.893
385.437
372.616
358.235
342.131
324.396
305.056
283.916
260.852
236.067
209.571
181.181
151.006
119.273
85.9914
51.1557
14.9803
-23.0063
-61.7705
-98.9736
-128.395
-142.067
454.573
452.842
452.877
451.998
452.027
451.535
451.392
451.165
450.881
450.585
450.192
449.706
449.075
448.248
447.223
445.87
444.228
442.355
440.143
437.402
433.957
429.735
424.888
419.21
412.374
404.594
395.877
386.121
375.074
362.684
348.926
333.835
317.342
299.302
279.706
258.756
236.509
212.775
187.626
161.218
133.587
104.807
75.1295
44.8374
13.6737
-17.7863
-47.9134
-72.9278
-87.5955
-98.3048
446.095
445.172
445.132
444.416
444.371
443.863
443.663
443.266
442.785
442.251
441.552
440.649
439.57
438.251
436.704
434.9
432.641
429.863
426.654
422.992
418.867
414.028
408.332
401.812
394.622
386.29
376.726
366.003
354.188
341.183
326.887
311.231
294.346
276.358
257.279
236.9
215.269
192.735
169.353
145.132
120.2
94.7439
69.0621
43.3449
17.9687
-6.14347
-27.4851
-42.4269
-46.5983
-51.2621
437.516
436.926
437.035
436.503
436.406
435.875
435.616
435.046
434.392
433.638
432.666
431.46
429.991
428.2
426.001
423.487
420.693
417.513
413.828
409.513
404.547
398.957
392.719
385.558
377.32
368.194
358.204
347.009
334.555
320.942
306.213
290.399
273.502
255.546
236.608
216.994
196.718
175.673
154.097
132.144
110.057
87.9736
66.1709
45.02
25.3024
8.0256
-5.35467
-13.568
-19.6105
-21.2372
428.892
428.609
428.942
428.43
428.355
427.829
427.453
426.738
425.973
424.974
423.673
422.174
420.411
418.347
415.927
412.976
409.474
405.488
401.073
396.186
390.666
384.399
377.397
369.748
361.289
351.696
340.96
329.295
316.546
302.656
287.597
271.531
254.572
236.903
218.576
199.549
180.086
160.459
140.735
121.07
101.393
82.0605
63.7941
46.8785
31.8075
19.6833
11.5435
8.12468
2.51087
0.857
420.132
420.443
421.008
420.285
420.413
419.945
419.486
418.613
417.665
416.429
414.913
413.106
410.924
408.36
405.495
402.309
398.667
394.438
389.578
384.124
378.113
371.413
363.89
355.453
346.231
336.301
325.327
313.228
300.088
285.882
270.628
254.407
237.425
219.747
201.567
183.277
164.907
146.509
128.208
110.135
92.6176
75.9076
60.3348
46.467
35.1177
27.6147
24.3254
20.0175
17.7694
15.5976
411.63
412.479
413.089
412.818
412.818
412.373
411.89
410.923
409.76
408.225
406.461
404.423
402.041
399.271
395.988
392.241
388.069
383.452
378.307
372.511
366.119
359.073
351.277
342.766
333.342
322.874
311.541
299.244
285.818
271.343
255.826
239.303
221.978
204.183
186.185
168.054
150.117
132.653
115.643
99.0596
83.0651
68.211
54.87
43.4736
35.1138
30.5148
28.9438
26.2245
23.978
22.7026
403.487
404.923
405.561
405.615
405.803
405.211
404.672
403.694
402.474
400.777
398.709
396.241
393.417
390.311
386.849
382.935
378.501
373.536
368.076
362.067
355.454
348.229
340.211
331.289
321.63
311.118
299.616
287.06
273.443
258.65
242.728
225.877
208.207
189.904
171.36
153.078
135.323
118.274
101.973
86.147
71.2357
57.9724
46.4808
37.6692
32.4641
30.433
27.3613
26.7148
24.7781
24.4799
396.091
397.918
398.697
398.916
399.153
398.717
398.22
397.115
395.774
394.008
391.873
389.258
386.156
382.558
378.553
374.163
369.355
364.091
358.333
352.083
345.298
337.914
330.013
321.414
311.752
301.17
289.647
277.054
263.371
248.47
232.284
214.761
196.054
176.719
157.365
138.263
119.843
102.656
86.7681
71.9852
58.2813
45.5043
34.6511
28.9135
28.9667
27.4314
26.0266
24.2914
23.0749
23.0528
389.332
391.574
392.45
392.902
393.225
392.935
392.498
391.465
390.08
388.128
385.744
382.9
379.628
375.853
371.56
366.79
361.564
355.875
349.825
343.35
336.392
328.955
320.784
312.085
302.805
292.558
281.2
268.788
255.137
240.188
223.78
205.84
186.475
165.657
144.144
123.277
103.639
85.6296
69.9013
56.112
43.6611
32.3228
23.603
19.7408
20.7528
22.3761
21.3134
19.3219
18.3004
18.5938
383.127
385.647
386.867
387.595
388.109
387.961
387.577
386.647
385.309
383.409
380.99
377.941
374.328
370.174
365.504
360.324
354.698
348.597
342.07
335.241
328.018
320.488
312.565
304
294.824
284.957
274.189
262.287
249.069
234.347
217.905
199.482
178.938
156.512
132.722
108.742
86.2693
66.3271
49.5996
37.0493
27.7469
20.2953
15.3917
13.5007
13.1004
14.9406
14.5205
12.9807
12.0405
12.3929
377.557
380.27
381.81
382.816
383.669
383.78
383.627
382.77
381.443
379.504
376.995
373.904
370.206
365.843
360.841
355.27
349.186
342.663
335.694
328.371
320.786
312.854
304.726
296.368
287.487
278.01
267.791
256.66
244.346
230.358
214.242
195.821
174.857
150.756
123.703
95.4538
68.3842
44.6901
26.2966
14.4222
9.12382
9.22679
9.12382
7.22661
6.95927
7.19494
7.39298
7.24155
6.82204
6.6521
372.394
375.432
377.089
378.523
379.714
380.096
380.313
379.703
378.66
376.838
374.303
370.999
367.009
362.414
357.125
351.163
344.598
337.482
329.941
322.049
313.947
305.79
297.377
288.847
280.35
271.621
262.363
252.359
241.152
228.245
213.042
195.16
173.939
148.926
119.391
85.6769
51.3268
20.3719
-3.13027
-16.5262
-15.5615
-4.8577
-2.0584
-2.16187
-2.43833
-1.28297
0.47348
1.97222
2.76601
2.79625
367.3
371.171
372.456
374.74
376.116
376.974
377.53
377.164
376.369
374.745
372.473
369.323
365.228
360.285
354.651
348.285
341.231
333.572
325.316
316.701
307.803
298.893
290.174
281.489
273.014
264.694
256.318
247.637
238.094
227.095
213.846
197.469
177.169
151.858
120.31
81.678
37.5603
-6.44372
-40.6991
-52.4287
-43.9435
-28.7824
-18.2759
-15.6498
-13.3757
-9.95279
-5.92922
-2.10231
0.156592
0.315725
361.926
367.573
367.476
371.302
372.598
374.143
375.103
375.307
374.896
373.427
371.255
368.197
364.21
359.148
353.109
346.255
338.553
330.209
321.158
311.604
301.804
291.893
282.403
273.391
264.948
257.105
249.785
242.654
235.359
227.08
216.631
202.596
184.104
160.073
128.566
87.7062
35.4032
-25.118
-80.4806
-100.536
-73.8192
-54.1393
-38.6655
-31.6112
-25.8773
-19.9334
-13.5103
-7.42893
-3.58815
-2.50247
355.824
364.292
362.242
367.997
369.015
371.333
372.704
373.438
373.706
372.765
370.915
367.989
364.077
359.065
352.841
345.502
337.149
328.099
318.019
307.245
296.195
285.18
274.419
264.496
255.671
247.941
241.397
235.691
230.803
225.913
219.6
209.983
195.752
175.455
146.785
105.814
45.7032
-33.432
-111.869
-151.099
-124.531
-88.405
-76.1353
-67.7286
-57.6548
-45.6085
-32.2824
-19.6168
-10.5583
-5.23991
348.373
360.98
357.1
364.123
365.404
368.358
370.41
371.699
372.379
372.087
370.801
368.199
364.429
359.443
353.173
345.471
336.57
326.564
315.271
303.342
290.763
278.099
265.686
254.175
244.409
236.59
230.668
226.531
224.265
223.367
222.773
219.009
210.52
195.896
172.441
133.519
74.4527
-11.7813
-109.051
-163.451
-173.362
-138.037
-133.263
-134.616
-126.185
-108.767
-86.6155
-64.8842
-48.9679
-40.3198
338.626
357.371
352.11
359.65
361.691
365.194
367.995
370.024
371.398
371.666
370.871
368.738
365.281
360.561
354.323
346.479
336.901
326.065
313.586
300.096
286.121
271.695
257.376
243.884
232.476
223.698
217.213
214.277
214.022
216.616
221.369
225.834
227.069
220.694
203.242
175.017
119.048
29.2053
-72.6953
-132.439
-168.418
-177.469
-195.335
-214.695
-218.211
-200.423
-169.531
-138.525
-117.938
-108.127
304.776
344.813
346.819
354.834
358.178
362.186
365.28
367.755
369.745
370.836
370.682
369.067
365.886
361.273
355.12
347.222
337.208
325.472
312.397
297.195
281.501
265.483
248.897
232.799
218.724
207.915
200.114
196.949
199.7
205.892
213.693
228.673
243.581
253.376
251.082
231.192
183.015
103.663
12.2353
-78.8326
-139.929
-197.589
-253.305
-303.711
-327.407
-315.614
-278.222
-237.906
-212.247
-202.798
390.718
386.029
383.686
382.217
381.087
380.131
379.224
378.258
377.301
376.363
375.225
373.98
372.618
371.234
369.669
367.914
366.183
364.335
362.301
360.087
357.729
354.966
351.68
348.286
344.713
340.803
336.353
331.278
325.762
319.621
312.391
303.92
294.268
283.281
270.547
255.591
238.034
217.447
193.279
164.917
131.742
93.0921
48.172
-4.03945
-64.2782
-133.555
-212.466
-299.959
-404.853
-519.223
387.441
382.542
380.726
378.996
377.373
375.929
374.573
373.253
371.918
370.544
369.07
367.443
365.675
363.866
361.86
359.582
356.993
354.279
351.391
348.11
344.609
340.997
336.782
332.046
326.822
321.107
314.902
307.767
299.742
290.953
281.109
269.784
256.8
242.068
225.28
205.987
183.673
157.833
127.958
93.446
53.5708
7.52128
-45.4479
-106.218
-175.489
-254.743
-344.064
-441.692
-555.318
-679.766
382.963
377.867
376.423
374.37
372.415
370.665
368.979
367.337
365.676
363.776
361.801
359.688
357.45
354.953
352.317
349.538
346.32
342.704
338.802
334.585
329.814
324.655
319.174
313.105
306.297
298.623
290.289
281.139
270.789
259.178
246.235
231.711
215.29
196.695
175.546
151.39
123.874
92.4777
56.5296
15.3943
-31.5392
-85.1103
-146.13
-215.483
-293.437
-381.907
-480.81
-588.401
-707.603
-836.323
377.663
372.312
371.104
368.633
366.518
364.5
362.595
360.556
358.427
356.132
353.632
350.972
348.109
344.92
341.466
337.688
333.639
329.172
324.137
318.696
312.826
306.363
299.242
291.414
282.92
273.509
262.902
251.226
238.262
223.796
207.629
189.483
169.196
146.475
120.875
91.9128
59.0413
21.7142
-20.497
-68.2705
-122.237
-183.343
-252.264
-329.78
-416.429
-513.421
-620.699
-736.173
-858.778
-986.986
371.692
366.043
365.05
362.285
360.077
357.86
355.639
353.272
350.675
347.886
344.857
341.575
337.964
333.958
329.637
324.952
319.855
314.337
308.318
301.612
294.166
286.091
277.241
267.482
256.851
245.339
232.63
218.453
202.73
185.286
165.828
144.084
119.816
92.7612
62.4449
28.2968
-10.122
-53.3072
-101.845
-156.325
-217.375
-285.657
-361.849
-446.69
-540.801
-645.133
-759.697
-881.484
-1006.41
-1132
365.097
359.303
358.476
355.465
353.212
350.819
348.166
345.373
342.41
339.218
335.746
331.865
327.658
322.938
317.612
311.861
305.649
298.844
291.448
283.52
274.796
265.019
254.292
242.533
229.64
215.524
200.158
183.32
164.691
144.074
121.185
95.6413
67.2004
35.5664
0.349975
-38.8516
-82.5823
-131.419
-185.857
-246.578
-314.138
-389.04
-471.845
-563.268
-663.705
-773.87
-893.87
-1020.68
-1147.68
-1270.01
357.866
352.172
351.467
348.039
345.75
343.125
340.226
337.073
333.605
329.885
325.862
321.436
316.463
311.072
305.108
298.387
291.054
283.1
274.29
264.601
254.151
242.722
230.18
216.408
201.28
184.682
166.477
146.596
124.809
100.779
74.3396
45.1261
12.7123
-23.2554
-63.1543
-107.486
-156.653
-211.031
-271.164
-337.598
-410.957
-491.707
-580.12
-676.67
-781.933
-896.696
-1021.11
-1152.04
-1280.58
-1398.3
350.237
344.679
344.09
340.132
337.772
334.827
331.601
328.147
324.335
320.075
315.362
310.258
304.536
298.179
291.259
283.609
275.134
265.89
255.89
244.846
232.69
219.442
204.977
189.132
171.756
152.669
131.801
108.927
83.8613
56.3988
26.2049
-6.97032
-43.4689
-83.8154
-128.367
-177.4
-231.323
-290.567
-355.669
-427.163
-505.458
-590.939
-684.004
-784.922
-893.775
-1011.43
-1138.78
-1272.82
-1402.41
-1513.53
342.24
336.985
336.382
332.018
329.738
326.357
322.809
318.849
314.504
309.686
304.284
298.257
291.721
284.568
276.63
267.942
258.379
247.76
236.079
223.464
209.615
194.483
178.05
160.131
140.613
119.194
95.6468
69.8419
41.6546
10.8495
-22.8666
-59.8566
-100.376
-144.668
-193.143
-246.359
-304.763
-368.604
-438.214
-514.015
-596.455
-685.905
-782.437
-886.305
-997.795
-1117.62
-1246.65
-1381.98
-1510.15
-1610.92
333.846
329.129
328.434
324.03
321.811
317.881
314.031
309.69
304.768
299.275
293.184
286.486
278.844
270.513
261.449
251.529
240.691
228.873
215.861
201.638
186.095
169.075
150.449
130.16
108.2
84.4064
58.4378
29.996
-1.12694
-35.1495
-72.2814
-112.752
-156.855
-204.926
-257.366
-314.505
-376.607
-444.057
-517.213
-596.412
-681.987
-774.223
-873.387
-979.491
-1092.53
-1213.16
-1342.35
-1477.22
-1602.62
-1691.06
325.301
321.34
320.499
316.315
313.981
309.558
305.557
300.716
295.298
289.18
282.3
274.81
266.534
257.218
246.96
235.721
223.44
210.078
195.519
179.555
162.217
143.423
122.922
100.541
76.1338
49.6512
20.9516
-10.178
-43.9818
-80.7499
-120.831
-164.528
-212.044
-263.505
-319.102
-379.26
-444.479
-515.042
-591.204
-673.195
-761.243
-855.577
-956.313
-1063.61
-1177.42
-1298.04
-1425.68
-1557.52
-1678.45
-1754.19
317.217
314.084
313.165
308.833
306.378
301.846
297.549
292.26
286.344
279.704
272.213
263.783
254.544
244.362
233.138
220.803
207.255
192.477
176.453
158.935
139.742
118.876
96.2673
71.8096
45.2679
16.4752
-14.7635
-48.6128
-85.3135
-125.02
-167.917
-214.292
-264.374
-318.525
-377.109
-440.288
-508.192
-581.103
-659.27
-742.949
-832.398
-927.844
-1029.34
-1136.88
-1250.47
-1370.21
-1495.63
-1623.37
-1738.55
-1801.85
309.889
307.462
306.235
302.384
299.716
294.905
290.219
284.572
278.158
270.92
262.948
254.054
244.017
232.931
220.701
207.316
192.617
176.493
158.908
139.886
119.197
96.6876
72.181
45.559
16.7622
-14.3648
-48.001
-84.2598
-123.281
-165.327
-210.766
-259.794
-312.659
-369.477
-430.368
-495.53
-565.269
-639.917
-719.702
-804.756
-895.191
-991.08
-1092.6
-1199.65
-1311.99
-1429.74
-1552.11
-1674.77
-1782.33
-1834.09
303.639
301.658
300.537
296.71
293.87
289.066
284.055
278.087
271.317
263.609
254.879
245.298
234.684
222.974
210.016
195.719
180.064
162.94
144.146
123.623
101.304
77.1153
50.9308
22.5591
-8.13054
-41.2598
-77.0112
-115.636
-157.226
-201.825
-249.603
-300.83
-355.605
-414.2
-476.914
-544.012
-615.573
-691.605
-772.277
-857.748
-948.153
-1043.68
-1144.26
-1250.04
-1360.89
-1476.58
-1595.9
-1713.01
-1811.45
-1852.71
298.673
297.014
296.166
292.399
289.246
284.401
279.275
273.048
265.949
258.033
249.027
238.846
227.586
215.147
201.54
186.531
169.98
151.844
132.072
110.522
87.0188
61.4194
33.598
3.49397
-29.0269
-64.0897
-101.739
-142.142
-185.511
-232.034
-281.86
-335.08
-391.945
-452.578
-517.089
-585.443
-657.838
-734.568
-815.721
-901.368
-991.58
-1086.38
-1185.87
-1289.76
-1397.94
-1510.35
-1625.84
-1738.08
-1828.62
-1858.86
295.37
294.111
292.844
289.417
286.308
281.378
276.148
269.833
262.489
254.221
245.025
234.613
223.005
210.101
195.873
180.27
163.104
144.216
123.505
100.888
76.3062
49.6165
20.6397
-10.7908
-44.7301
-81.3382
-120.738
-163.109
-208.428
-256.784
-308.42
-363.476
-421.876
-483.717
-549.174
-618.588
-691.984
-769.318
-850.636
-935.957
-1025.28
-1118.58
-1215.9
-1317.55
-1423.29
-1532.68
-1643.69
-1749.87
-1832.26
-1854.96
293.786
292.569
291.248
287.926
284.77
280.034
274.764
268.473
261.301
252.915
243.45
232.945
221.194
208.125
193.492
177.328
159.625
140.229
119.028
95.7508
70.3344
42.5329
12.3201
-20.3635
-55.6743
-93.6346
-134.272
-177.941
-224.783
-274.77
-327.856
-384.251
-444.063
-507.357
-574.233
-644.544
-718.331
-795.71
-876.814
-961.557
-1049.87
-1141.85
-1237.34
-1336.1
-1438.17
-1543.07
-1648.04
-1746.38
-1819.3
-1839.84
293.974
292.606
291.164
288.07
284.879
280.322
275.235
268.951
261.852
253.787
244.544
234.081
222.324
209.169
194.528
178.196
160.14
140.231
118.486
94.7622
69.1022
40.5772
9.52028
-24.1507
-60.6006
-99.9919
-141.884
-187.048
-235.204
-286.449
-341.037
-398.889
-460
-524.313
-591.813
-662.637
-736.923
-814.643
-895.507
-979.546
-1066.75
-1156.8
-1249.67
-1345.25
-1443.35
-1543.34
-1640.38
-1726.66
-1784.76
-1805.12
295.513
293.948
292.534
289.612
286.592
282.254
277.471
271.527
264.563
256.786
247.898
237.717
226.217
213.245
198.818
182.663
164.665
144.69
122.687
98.8168
72.2906
43.1717
11.4856
-22.9013
-60.1057
-100.252
-143.358
-189.667
-239.171
-291.841
-347.556
-406.621
-468.776
-534.063
-602.612
-674.427
-749.174
-826.815
-907.518
-990.982
-1076.86
-1165.27
-1255.97
-1348.74
-1442.72
-1536.06
-1623.18
-1693.78
-1734.3
-1751.49
298.201
296.476
295.073
292.395
289.59
285.651
281.151
275.802
269.485
262.102
253.604
243.875
232.848
220.319
206.206
190.378
172.676
152.911
130.833
107.744
80.7856
51.3001
19.0828
-15.9748
-54.0267
-95.1069
-139.252
-186.554
-237.143
-290.924
-347.931
-408.069
-471.644
-538.316
-607.867
-680.093
-755.326
-833.489
-914.169
-997.04
-1082.14
-1168.97
-1257.11
-1346.14
-1435.93
-1523.3
-1601.4
-1658.3
-1680.85
-1693.3
301.623
299.791
298.596
296.149
293.521
290.11
286.162
281.379
275.722
268.918
261.105
252.105
241.789
230.027
216.614
201.427
184.255
164.963
143.423
119.76
93.1378
63.7342
31.4179
-3.93671
-42.4155
-84.1515
-129.151
-177.441
-229.204
-284.438
-342.91
-404.54
-469.13
-536.642
-607.11
-680.675
-756.908
-835.55
-916.442
-999.571
-1084.11
-1169.81
-1256.56
-1343.84
-1430.05
-1510.99
-1580.89
-1627.69
-1641.18
-1646.87
305.951
303.693
302.61
300.56
298.378
295.366
291.912
287.7
282.796
276.918
269.953
261.813
252.344
241.493
229.039
214.813
198.597
180.251
159.482
136.222
109.999
80.712
48.3828
12.8148
-26.0304
-68.3489
-114.166
-163.454
-216.142
-272.303
-331.913
-394.988
-461.338
-530.658
-602.787
-677.352
-754.314
-833.858
-915.869
-999.211
-1083.86
-1169.49
-1255.34
-1340.63
-1423.99
-1500.49
-1562.65
-1601.08
-1615.6
-1615.72
310.059
307.996
307.012
305.371
303.603
301.027
298.128
294.535
290.358
285.338
279.337
272.366
264.163
254.499
243.196
230.085
215
197.782
178.022
155.535
130.119
101.421
69.3912
33.8671
-5.21253
-47.8528
-94.1781
-144.248
-198.211
-255.807
-317.025
-381.606
-449.49
-520.334
-593.84
-669.97
-748.885
-829.921
-912.593
-997.354
-1083.2
-1169.38
-1256.05
-1341.9
-1423.48
-1495.88
-1550.15
-1575.64
-1588.38
-1588.3
313.76
312.07
311.218
310.033
308.765
306.788
304.41
301.472
298.086
293.993
289.038
283.173
276.246
268.026
258.263
246.718
233.12
217.259
198.832
177.496
152.965
125.284
93.831
58.6001
19.4606
-23.6272
-70.5549
-121.386
-176.135
-234.996
-297.615
-364.008
-433.682
-506.401
-582.093
-660.467
-740.781
-823.322
-908.296
-994.744
-1082.22
-1170.35
-1258.09
-1344.2
-1425.35
-1495.52
-1542.59
-1555.59
-1560.35
-1563.69
316.489
315.766
314.858
314.241
313.446
312.151
310.487
308.265
305.575
302.376
298.539
293.893
288.261
281.49
273.332
263.507
251.635
237.404
220.624
200.896
177.792
151.029
120.956
86.2539
47.4586
4.42708
-43.0079
-94.7101
-150.607
-210.631
-274.76
-342.779
-414.764
-490.036
-567.934
-648.078
-730.861
-816.149
-903.023
-991.603
-1081.84
-1172.45
-1262.53
-1350.25
-1429.61
-1493.94
-1531.98
-1544.33
-1541.03
-1545.19
318.133
318.967
317.666
318.077
317.694
316.988
316.077
314.542
312.692
310.317
307.377
303.908
299.703
294.534
288.141
280.198
270.324
258.126
243.248
225.342
204.025
178.833
149.58
116.21
77.7742
34.9204
-12.6721
-65.0318
-122.112
-183.66
-249.671
-319.751
-393.618
-471.02
-551.43
-634.715
-720.243
-807.389
-896.917
-988.51
-1081.26
-1175.16
-1267.95
-1356.33
-1435.2
-1492.07
-1517
-1528.13
-1524.45
-1527.69
317.858
321.613
320.006
321.403
321.419
321.284
321.013
320.225
319.081
317.643
315.779
313.318
310.308
306.543
301.75
295.662
287.917
278.001
265.473
249.855
230.687
207.447
179.84
147.641
110.207
67.8117
20.1862
-32.7975
-90.8912
-154.028
-221.712
-294.128
-370.613
-450.954
-534.752
-620.594
-708.26
-798.676
-891.116
-985.246
-1081.15
-1177.67
-1272.93
-1362.42
-1440.98
-1492.51
-1505.63
-1508.19
-1508.67
-1510.55
315.374
323.04
321.232
323.923
324.383
324.85
325.148
325.09
324.491
323.605
322.711
321.557
319.899
317.617
314.437
310.129
304.422
296.778
286.765
273.721
257.057
236.142
210.531
179.816
143.57
101.793
54.3533
1.01746
-58.0989
-123.082
-193.283
-268.096
-347.726
-431.153
-517.477
-606.603
-697.869
-790.616
-885.511
-982.452
-1081.23
-1181.52
-1279.85
-1369.18
-1441.63
-1484.88
-1497.98
-1492.56
-1493.43
-1494.17
309.692
323.698
321.602
325.853
326.99
328.131
328.958
329.164
329.357
329.001
328.483
328.087
327.472
326.41
324.794
322.405
318.838
313.571
306.104
295.84
282.006
263.823
240.776
212.357
177.655
136.549
89.5127
35.5568
-24.7022
-91.075
-163.792
-241.839
-324.647
-411.761
-502.561
-595.645
-689.633
-784.792
-881.894
-980.798
-1083.04
-1186.34
-1289.27
-1382.75
-1446.4
-1471.27
-1482.83
-1477.41
-1476.69
-1476.69
289.508
320.138
321.08
326.821
329.308
331.079
332.012
332.465
333.155
333.838
334.301
334.393
334.169
334.134
334.051
333.508
331.701
328.461
323.266
315.531
304.391
289.039
268.704
242.552
209.352
168.718
122.815
68.9882
7.08759
-61.9419
-137.068
-218.498
-305.579
-397.24
-491.987
-588.691
-686.56
-785.425
-884.475
-984.019
-1085.9
-1191.93
-1291.89
-1380.32
-1439.61
-1459.19
-1460.62
-1459.43
-1457.65
-1457.11
288.703
314.776
320.898
327.104
331.312
334.114
335.41
336.193
336.258
336.492
337.053
337.982
339.127
339.835
340.569
341.209
341.586
340.699
337.878
332.543
323.927
310.939
292.249
267.614
236.019
196.152
148.883
95.044
33.7435
-37.5815
-116.605
-201.954
-293.648
-390.69
-491.004
-593.169
-696.017
-798.567
-899.192
-997.952
-1097.34
-1202.5
-1300.9
-1385.44
-1431.91
-1448.34
-1440.07
-1439.1
-1437.23
-1435.87
300.239
316.385
324.538
330.881
335.058
338.005
340.133
340.614
340.476
340.205
340.523
341.302
343.307
345.413
347.42
348.839
350.768
352.193
350.707
346.067
337.703
324.77
305.835
279.694
246.525
205.213
155.961
99.1901
35.2884
-37.2318
-119.737
-210.318
-307.839
-410.406
-516.734
-624.625
-732.047
-837.661
-939.792
-1037.93
-1130.53
-1226.21
-1316.56
-1380.08
-1412.03
-1414.6
-1414.8
-1415.43
-1414.83
-1413.31
312.949
325.39
332.447
337.732
341.582
343.781
345.117
345.104
344.87
344.3
344.675
346.484
349.648
352.77
354.975
357.089
359.652
362.61
362.223
357.353
348.654
333.923
311.93
281.696
243.489
197.586
143.705
83.0083
13.812
-64.492
-151.363
-246.72
-349.387
-457.723
-569.193
-682.536
-794.871
-903.648
-1007.61
-1095.97
-1177.13
-1254.95
-1320.88
-1359.15
-1374.16
-1382.31
-1388.94
-1393.76
-1394.43
-1392.64
325.771
335.575
342.553
347.88
350.286
350.867
350.489
349.554
348.864
348.867
350.533
353.892
357.616
360.594
364.253
369.212
372.771
374.696
374.703
369.573
358.519
340.839
314.506
279.34
234.906
181.656
120.031
51.5416
-22.7666
-106.721
-200.439
-302.779
-411.943
-526.529
-644.244
-763.648
-882.277
-996.065
-1087.78
-1160.53
-1222.6
-1268.45
-1297.99
-1318.6
-1334.43
-1352.17
-1366.94
-1375.57
-1378.9
-1377.81
337
347.666
354.56
358.147
359.641
358.837
356.13
353.455
351.846
351.925
353.968
357.581
363.642
370.462
374.466
379.513
385.693
389.437
390.569
385.677
371.819
349.255
316.796
273.959
222.521
162.461
93.8953
16.8632
-67.6334
-159.125
-259.952
-369.202
-487.256
-610.153
-737.655
-865.42
-990.572
-1095.29
-1170.33
-1223.17
-1251.71
-1258.63
-1263.26
-1278.72
-1304.44
-1333.55
-1358.38
-1372.74
-1377.83
-1376.49
350.687
359.47
366.087
369.684
368.945
364.589
360.395
355.745
350.95
351.455
355.701
361.632
369.513
373.647
378.266
387.122
395.962
401.049
401.666
395.707
379.799
353.327
316.12
266.719
206.767
139.029
62.7494
-20.7194
-112.634
-214.882
-327.682
-446.973
-573.698
-708.907
-848.302
-988.304
-1109.96
-1198.1
-1254.72
-1274.97
-1263.53
-1246.96
-1245.62
-1262.82
-1294.73
-1331.2
-1365.26
-1383.67
-1389.14
-1388.81
365.69
375.919
382.038
379.969
374.855
368.249
359.707
351.925
346.303
347.904
355.358
356.643
357.398
368.631
379.565
387.563
395.883
403.892
406.913
399.644
378.059
343.775
298.365
243.125
178.731
106.183
25.2331
-65.9326
-165.22
-274.658
-396.28
-532.385
-674.466
-827.936
-984.144
-1125.21
-1234.58
-1307.82
-1336.63
-1320.89
-1292.2
-1273.14
-1270.72
-1285.39
-1314.15
-1349.79
-1382.6
-1402.62
-1409.31
-1410.77
387.715
394.306
394.528
389.727
379.248
366.48
351.963
337.456
329.415
329.432
328.948
332.2
338.578
347.344
359.348
371.149
383.888
393.9
395.225
382.533
355.565
314.289
259.829
195.31
123.507
45.9505
-36.7316
-129.205
-233.98
-352.82
-482.735
-628.868
-793.743
-967.285
-1132.71
-1267.4
-1368.35
-1422.96
-1422.15
-1397.51
-1370.39
-1351.47
-1345.04
-1350.66
-1366.5
-1389.03
-1411.39
-1426.38
-1434.93
-1438.25
409.971
408.271
404.298
394.428
374.389
352.589
326.071
297.979
280.057
279.253
284.725
286.019
307.03
325.617
342.003
354.323
362.949
364.022
350.23
321.574
281.34
231.846
174.773
110.027
37.9151
-40.6966
-126.537
-219.856
-325.052
-448.477
-597.686
-760.365
-943.204
-1127.09
-1292.48
-1428.16
-1512.94
-1542.09
-1540.38
-1523.72
-1500.02
-1478.39
-1461.71
-1452.23
-1448.93
-1451.34
-1456.2
-1460.86
-1465.28
-1471.69
410.89
405.626
399.175
380.353
347.051
313.29
269.483
217.106
186.622
196.582
221.75
248.677
258.863
276.563
289.539
300.164
301.917
286.928
251.403
201.999
145.891
89.8082
34.4989
-23.7979
-87.5498
-156.481
-233.946
-324.384
-433.793
-561.724
-727.645
-919.748
-1119.36
-1308.66
-1470.05
-1590.51
-1660.78
-1689.91
-1696.32
-1685.65
-1661.26
-1631.31
-1601.59
-1574.8
-1551.48
-1532.99
-1520.15
-1511.71
-1508.28
-1519.48
383.594
375.532
358.251
334.871
294.172
235.718
152.143
48.0318
4.27778
42.1803
70.0788
113.149
154.226
185.207
200.833
204.563
191.429
153.585
94.1503
22.6839
-49.557
-113.749
-160.758
-198.683
-239.766
-294.132
-359.5
-443.179
-556.56
-702.699
-880.142
-1090.72
-1298.22
-1485.65
-1632.25
-1735.62
-1805.21
-1851.15
-1874.8
-1866.71
-1835.23
-1791.23
-1744.34
-1698.99
-1658.68
-1623.39
-1596.43
-1578.44
-1571.41
-1585.84
311.766
309.26
290.584
250.797
187.6
90.9334
-53.2467
-224.911
-326.985
-298.028
-197.001
-86.1518
-4.40719
43.6075
67.268
64.3268
34.95