/*--------------------------------*- C++ -*----------------------------------*\
| =========                 |                                                 |
| \\      /  F ield         | OpenFOAM: The Open Source CFD Toolbox           |
|  \\    /   O peration     | Version:  v1912                                 |
|   \\  /    A nd           | Website:  www.openfoam.com                      |
|    \\/     M anipulation  |                                                 |
\*---------------------------------------------------------------------------*/
FoamFile
{
    version     2.0;
    format      ascii;
    class       surfaceScalarField;
    location    "0.44";
    object      phi;
}
// * * * * * * * * * * * * * * * * * * * * * * * * * * * * * * * * * * * * * //

dimensions      [0 3 -1 0 0 0 0];
oriented        oriented;


internalField   nonuniform List<scalar> 
13060
(
0.00631461
0.987733
-0.994047
0.00888136
0.943968
-0.946535
0.0111359
0.89705
-0.899305
0.012981
0.852247
-0.854092
0.0143365
0.810315
-0.811671
0.0151247
0.771219
-0.772008
0.0154743
0.734421
-0.734771
0.0155635
0.699469
-0.699558
0.0154908
0.666277
-0.666204
0.0152993
0.634712
-0.63452
0.01508
0.604686
-0.604467
0.0149405
0.575934
-0.575795
0.01494
0.548498
-0.548497
0.015017
0.52232
-0.522397
0.0150114
0.497303
-0.497297
0.0149716
0.473247
-0.473208
0.0150851
0.450042
-0.450156
0.0153393
0.427849
-0.428104
0.0156501
0.40668
-0.40699
0.01591
0.386439
-0.386699
0.016148
0.367018
-0.367256
0.0164139
0.34858
-0.348845
0.0167306
0.330872
-0.331189
0.0169954
0.314163
-0.314428
0.0170078
0.298272
-0.298284
0.016861
0.283014
-0.282868
0.0165709
0.268545
-0.268255
0.0160948
0.254912
-0.254436
0.0154523
0.241904
-0.241261
0.0148339
0.229401
-0.228783
0.0142762
0.217722
-0.217164
0.0136356
0.20676
-0.206119
0.0128678
0.196299
-0.195531
0.01206
0.186363
-0.185555
0.0112882
0.177048
-0.176276
0.010543
0.168399
-0.167654
0.00968412
0.160271
-0.159412
0.00873622
0.152498
-0.15155
0.00772648
0.145279
-0.14427
0.00663382
0.138642
-0.13755
0.00553458
0.132376
-0.131277
0.00442976
0.12642
-0.125315
0.0033123
0.12084
-0.119722
0.00221048
0.115753
-0.114651
0.00111845
0.110902
-0.10981
0.000145453
0.106459
-0.105486
-0.00088347
0.101912
-0.100883
-0.00178597
0.0985076
-0.0976051
-0.00179731
0.0903386
-0.0903273
0.062341
-0.0641384
0.00671886
0.981014
0.00897394
0.941713
0.010632
0.895392
0.0114929
0.851386
0.0117608
0.810047
0.0117154
0.771265
0.0114821
0.734654
0.0111187
0.699832
0.0106733
0.666722
0.0102415
0.635144
0.00988273
0.605045
0.00960362
0.576213
0.00945549
0.548646
0.00957061
0.522205
0.00995768
0.496916
0.0103638
0.472841
0.0106049
0.449801
0.0107162
0.427738
0.0108133
0.406583
0.0109033
0.386349
0.0109053
0.367016
0.0108174
0.348667
0.010578
0.331112
0.0103929
0.314348
0.0102603
0.298405
0.0101798
0.283095
0.0100989
0.268626
0.0101256
0.254886
0.0100443
0.241985
0.00971987
0.229726
0.00921031
0.218232
0.00863027
0.20734
0.00803887
0.19689
0.00733431
0.187068
0.00650717
0.177875
0.00561874
0.169288
0.00473049
0.161159
0.00381276
0.153416
0.00293309
0.146159
0.00211086
0.139465
0.00128013
0.133207
0.000468054
0.127232
-0.000317417
0.121625
-0.00105212
0.116488
-0.00172885
0.111579
-0.00233987
0.10707
-0.00295097
0.102523
-0.00307567
0.0986323
-0.00240749
0.0896704
0.0599336
0.00656815
0.974446
0.00815974
0.940121
0.00892129
0.894631
0.00896009
0.851348
0.00877009
0.810237
0.00846809
0.771567
0.00805465
0.735068
0.00755123
0.700336
0.00702391
0.667249
0.00656633
0.635601
0.00619153
0.60542
0.0059211
0.576484
0.00571796
0.548849
0.00544396
0.522479
0.00518445
0.497175
0.00515651
0.472869
0.00529552
0.449662
0.00552521
0.427509
0.00565628
0.406451
0.00574366
0.386262
0.00583903
0.366921
0.00602827
0.348478
0.00621966
0.33092
0.0062257
0.314342
0.00603214
0.298598
0.00565179
0.283475
0.00511006
0.269168
0.00441244
0.255583
0.00379855
0.242599
0.00331004
0.230214
0.00289127
0.21865
0.002387
0.207844
0.00179318
0.197484
0.00122858
0.187632
0.000712655
0.178391
0.00022024
0.16978
-0.000347738
0.161727
-0.000930535
0.153999
-0.00157525
0.146804
-0.00224345
0.140133
-0.00284287
0.133806
-0.00341847
0.127808
-0.00394995
0.122157
-0.00436854
0.116906
-0.00469134
0.111901
-0.00488067
0.107259
-0.00495452
0.102597
-0.00440227
0.09808
-0.00305906
0.0883272
0.0568745
0.00598359
0.968462
0.00678946
0.939316
0.00700028
0.89442
0.00648049
0.851867
0.00575095
0.810967
0.00483898
0.772479
0.00396764
0.735939
0.00326009
0.701043
0.00262517
0.667884
0.00208304
0.636143
0.00161884
0.605884
0.00125023
0.576852
0.0011329
0.548966
0.00125354
0.522358
0.00136247
0.497066
0.00136679
0.472865
0.00122376
0.449805
0.00115538
0.427577
0.00116045
0.406446
0.00109583
0.386326
0.000871362
0.367145
0.000473515
0.348876
6.24388e-05
0.331332
-0.00019485
0.314599
-0.000419088
0.298823
-0.000598883
0.283655
-0.000618875
0.269188
-0.00070994
0.255674
-0.000972157
0.242861
-0.00144441
0.230687
-0.00195465
0.219161
-0.00239334
0.208283
-0.0028805
0.197971
-0.00346749
0.188219
-0.00412834
0.179051
-0.00479926
0.170451
-0.00542091
0.162349
-0.00600448
0.154582
-0.00645763
0.147257
-0.00680272
0.140478
-0.00710307
0.134107
-0.0073294
0.128034
-0.0074556
0.122283
-0.00746741
0.116918
-0.00734646
0.11178
-0.00707568
0.106988
-0.0067361
0.102258
-0.00579677
0.0971407
-0.00379057
0.086321
0.0530839
0.00492268
0.963539
0.00469466
0.939544
0.00402891
0.895086
0.00320706
0.852689
0.00233849
0.811835
0.00136725
0.77345
0.000478477
0.736828
-0.000272125
0.701794
-0.000925522
0.668538
-0.00142274
0.636641
-0.00181623
0.606278
-0.00221327
0.577249
-0.00269439
0.549448
-0.00313049
0.522794
-0.00341029
0.497346
-0.00356966
0.473024
-0.00361557
0.449851
-0.00378972
0.427751
-0.00395247
0.406609
-0.00405755
0.386431
-0.00401189
0.3671
-0.00390624
0.34877
-0.00397715
0.331402
-0.00427285
0.314895
-0.00465667
0.299206
-0.00521055
0.284209
-0.00607512
0.270052
-0.00683496
0.256434
-0.00738424
0.24341
-0.00782162
0.231124
-0.00825888
0.219598
-0.00875419
0.208778
-0.00918876
0.198406
-0.00954521
0.188576
-0.00983184
0.179338
-0.0100834
0.170703
-0.0103053
0.162571
-0.0105356
0.154813
-0.0108073
0.147529
-0.0110139
0.140685
-0.0110703
0.134163
-0.0110242
0.127988
-0.0108714
0.12213
-0.0105723
0.116619
-0.0101249
0.111333
-0.00946523
0.106328
-0.0086828
0.101475
-0.00723458
0.0956925
-0.00452355
0.08361
0.0485604
0.00381708
0.959722
0.0029127
0.940448
0.00156869
0.89643
0.000287587
0.85397
-0.00112526
0.813248
-0.00232505
0.77465
-0.00342047
0.737923
-0.0043594
0.702733
-0.00512214
0.669301
-0.00580736
0.637326
-0.00633009
0.6068
-0.00665277
0.577572
-0.00683137
0.549626
-0.00702026
0.522983
-0.00727526
0.497601
-0.00762482
0.473374
-0.00791844
0.450145
-0.00814328
0.427976
-0.0084114
0.406877
-0.00889134
0.386911
-0.00958185
0.36779
-0.0102592
0.349448
-0.0107475
0.331891
-0.0110927
0.31524
-0.0113221
0.299436
-0.0114411
0.284328
-0.0114285
0.27004
-0.0116086
0.256614
-0.0119902
0.243792
-0.012479
0.231613
-0.0129409
0.22006
-0.0132921
0.20913
-0.0137011
0.198815
-0.0141296
0.189004
-0.0145486
0.179757
-0.0148985
0.171053
-0.0151605
0.162833
-0.0152927
0.154945
-0.0152436
0.147479
-0.0150904
0.140531
-0.0148563
0.133929
-0.0144958
0.127627
-0.0140158
0.12165
-0.0134024
0.116006
-0.0126525
0.110583
-0.011743
0.105419
-0.010646
0.100378
-0.00879021
0.0938367
-0.00529616
0.0801159
0.0432642
0.00291339
0.956809
0.00103022
0.942331
-0.00105839
0.898518
-0.00263903
0.855551
-0.00406094
0.81467
-0.00531857
0.775907
-0.00642199
0.739027
-0.00738798
0.703699
-0.00821481
0.670127
-0.0089386
0.63805
-0.00965715
0.607519
-0.0103882
0.578303
-0.0110514
0.550289
-0.0115972
0.523529
-0.0120362
0.49804
-0.0124544
0.473792
-0.0129145
0.450605
-0.0133887
0.42845
-0.0137003
0.407189
-0.0137881
0.386999
-0.0138466
0.367849
-0.0140124
0.349614
-0.0143902
0.332268
-0.0148991
0.315749
-0.0155434
0.30008
-0.0164919
0.285276
-0.0173851
0.270933
-0.018042
0.257271
-0.0184575
0.244207
-0.0187703
0.231926
-0.0190975
0.220387
-0.0194593
0.209491
-0.0196999
0.199056
-0.0198214
0.189126
-0.0198382
0.179774
-0.0197771
0.170991
-0.0196421
0.162698
-0.0195035
0.154806
-0.0193661
0.147342
-0.0190902
0.140255
-0.0186192
0.133458
-0.0180104
0.127019
-0.0172733
0.120913
-0.0163862
0.115119
-0.0153846
0.109582
-0.0142958
0.10433
-0.0127443
0.0988266
-0.0103284
0.0914208
-0.00602696
0.0758145
0.0372373
0.00178146
0.955028
-0.000367002
0.94448
-0.00262578
0.900777
-0.00463852
0.857564
-0.00644852
0.81648
-0.00804414
0.777503
-0.00943656
0.740419
-0.0106676
0.70493
-0.0117335
0.671193
-0.0126355
0.638952
-0.0133255
0.608209
-0.0139198
0.578897
-0.0144987
0.550868
-0.0150959
0.524126
-0.01572
0.498664
-0.0163184
0.47439
-0.016853
0.451139
-0.0174291
0.429026
-0.0181711
0.407931
-0.0190627
0.387891
-0.0200352
0.368821
-0.0208413
0.35042
-0.021418
0.332845
-0.0218159
0.316147
-0.0220353
0.300299
-0.0219687
0.28521
-0.0220195
0.270984
-0.0223065
0.257558
-0.0227345
0.244635
-0.0231355
0.232327
-0.0234462
0.220698
-0.0237013
0.209746
-0.0239333
0.199288
-0.0241188
0.189311
-0.0242357
0.179891
-0.0242465
0.171002
-0.0241314
0.162582
-0.0238211
0.154496
-0.0233079
0.146829
-0.0227114
0.139659
-0.0220402
0.132787
-0.0212296
0.126208
-0.0202858
0.119969
-0.0192104
0.114043
-0.0179886
0.10836
-0.016715
0.103057
-0.014835
0.0969466
-0.0119364
0.0885221
-0.00677141
0.0706496
0.0304659
0.00122716
0.9538
-0.00182301
0.94753
-0.00446697
0.903421
-0.00658823
0.859685
-0.00847703
0.818369
-0.0101034
0.779129
-0.0114637
0.74178
-0.0127266
0.706193
-0.013909
0.672376
-0.0150483
0.640091
-0.016135
0.609296
-0.0171376
0.5799
-0.0180804
0.551811
-0.0189593
0.525005
-0.0197962
0.499501
-0.0206569
0.475251
-0.0215168
0.451999
-0.0222241
0.429734
-0.0226665
0.408373
-0.0228869
0.388111
-0.0231383
0.369073
-0.0236371
0.350919
-0.0243437
0.333552
-0.0251506
0.316954
-0.0261984
0.301347
-0.0272443
0.286255
-0.0280621
0.271802
-0.0285683
0.258064
-0.0288753
0.244942
-0.029101
0.232552
-0.0293551
0.220952
-0.0294889
0.20988
-0.0294675
0.199266
-0.0293315
0.189175
-0.0290982
0.179658
-0.0287496
0.170654
-0.0282831
0.162116
-0.0278011
0.154014
-0.0272762
0.146304
-0.0265645
0.138947
-0.0256587
0.131881
-0.0246361
0.125185
-0.0235117
0.118845
-0.0222693
0.112801
-0.020954
0.107044
-0.019306
0.101409
-0.0170747
0.0947154
-0.0135535
0.0850009
-0.00745693
0.0645529
0.0230089
0.000655366
0.953145
-0.00251766
0.950703
-0.00521784
0.906121
-0.00775634
0.862223
-0.0100557
0.820668
-0.0119893
0.781063
-0.0136313
0.743422
-0.0150998
0.707661
-0.0163735
0.673649
-0.0175197
0.641237
-0.0185673
0.610343
-0.0195712
0.580904
-0.0205688
0.552809
-0.0215855
0.526022
-0.0225545
0.50047
-0.0234764
0.476173
-0.0244511
0.452974
-0.0255863
0.430869
-0.0269166
0.409704
-0.0282572
0.389452
-0.0294042
0.37022
-0.0302794
0.351794
-0.030943
0.334215
-0.0313847
0.317396
-0.0314834
0.301446
-0.0315583
0.28633
-0.0317914
0.272035
-0.0321907
0.258464
-0.0326195
0.245371
-0.0329476
0.23288
-0.0331175
0.221122
-0.0332345
0.209997
-0.033269
0.199301
-0.0332018
0.189108
-0.0330223
0.179478
-0.0327481
0.170379
-0.0323496
0.161717
-0.0317254
0.15339
-0.0309004
0.145479
-0.0299976
0.138044
-0.0290168
0.1309
-0.0278926
0.124061
-0.0266279
0.11758
-0.0252542
0.111427
-0.0238796
0.10567
-0.0219464
0.0994753
-0.0193576
0.0921266
-0.0149733
0.0806167
-0.00797634
0.057556
0.0150326
0.000510378
0.952635
-0.00306206
0.954275
-0.00610895
0.909168
-0.00870675
0.864821
-0.0109572
0.822919
-0.0129167
0.783022
-0.0145766
0.745081
-0.0161714
0.709256
-0.0177244
0.675202
-0.0191936
0.642706
-0.020592
0.611742
-0.0219171
0.582229
-0.0232105
0.554102
-0.0245098
0.527321
-0.0257862
0.501746
-0.0270576
0.477444
-0.0282339
0.45415
-0.0291259
0.431761
-0.0298204
0.410398
-0.0304042
0.390035
-0.0310912
0.370907
-0.0320297
0.352732
-0.0330923
0.335278
-0.0342948
0.318598
-0.0355595
0.302711
-0.036685
0.287456
-0.0374292
0.272779
-0.0378589
0.258893
-0.0381398
0.245652
-0.0383495
0.23309
-0.0385065
0.221279
-0.0384804
0.209971
-0.0383058
0.199126
-0.0380259
0.188828
-0.0376253
0.179078
-0.037042
0.169796
-0.0363166
0.160992
-0.0355776
0.152651
-0.0347802
0.144682
-0.0337922
0.137056
-0.0326328
0.129741
-0.0313743
0.122803
-0.0300408
0.116247
-0.0286737
0.11006
-0.0270208
0.104017
-0.0247803
0.0972348
-0.0214672
0.0888136
-0.0157593
0.0749087
-0.00680405
0.0486007
0.00822854
0.000261604
0.952373
-0.00310084
0.957638
-0.00597878
0.912046
-0.00876048
0.867603
-0.0111641
0.825322
-0.0133636
0.785222
-0.0152905
0.747008
-0.0170437
0.711009
-0.018642
0.676801
-0.0201857
0.64425
-0.0216925
0.613248
-0.0231628
0.583699
-0.024609
0.555548
-0.0260221
0.528734
-0.0273625
0.503087
-0.0287217
0.478804
-0.030243
0.455672
-0.0319594
0.433477
-0.0338068
0.412245
-0.0355001
0.391729
-0.0368294
0.372236
-0.037888
0.353791
-0.0386852
0.336075
-0.0391779
0.319091
-0.0394344
0.302967
-0.0397336
0.287755
-0.040237
0.273282
-0.0407716
0.259428
-0.0412094
0.24609
-0.0414958
0.233377
-0.0416492
0.221432
-0.0417082
0.21003
-0.041649
0.199067
-0.0414321
0.188611
-0.0410924
0.178738
-0.0406931
0.169397
-0.0401657
0.160465
-0.0393927
0.151878
-0.0384179
0.143707
-0.0373531
0.135992
-0.036196
0.128584
-0.034912
0.121519
-0.0335187
0.114853
-0.0321068
0.108648
-0.0301624
0.102073
-0.0276119
0.0946843
-0.0233241
0.0845257
-0.0157129
0.0672976
-0.00464961
0.0375373
0.00357893
0.000545757
0.951827
-0.00277332
0.960957
-0.00579414
0.915067
-0.00847702
0.870286
-0.0106123
0.827458
-0.0127098
0.787319
-0.0146708
0.748969
-0.0166708
0.713009
-0.0186382
0.678768
-0.020522
0.646134
-0.0223473
0.615074
-0.0241625
0.585514
-0.0259739
0.55736
-0.0278204
0.530581
-0.0296521
0.504919
-0.0313344
0.480486
-0.032754
0.457091
-0.0338865
0.43461
-0.034901
0.41326
-0.0360605
0.392888
-0.0373514
0.373527
-0.0387552
0.355195
-0.0402149
0.337535
-0.0417765
0.320652
-0.0433047
0.304495
-0.0444816
0.288932
-0.0452269
0.274028
-0.0457542
0.259955
-0.0461645
0.2465
-0.0464622
0.233674
-0.0465953
0.221565
-0.046537
0.209972
-0.0463353
0.198865
-0.0460394
0.188315
-0.0455814
0.17828
-0.044888
0.168703
-0.0440672
0.159644
-0.0432398
0.15105
-0.042351
0.142818
-0.0412841
0.134925
-0.0400646
0.127364
-0.0387274
0.120181
-0.0374687
0.113595
-0.0358105
0.10699
-0.0335372
0.0997994
-0.0301393
0.0912864
-0.024561
0.0789474
-0.0154784
0.058215
-0.00294281
0.0250017
0.000636123
0.000676959
0.95115
-0.0020621
0.963696
-0.00479174
0.917796
-0.00732458
0.872819
-0.00963154
0.829765
-0.0118235
0.789511
-0.0138442
0.75099
-0.0158435
0.715009
-0.01783
0.680755
-0.0198526
0.648156
-0.0218782
0.617099
-0.0238775
0.587514
-0.0258058
0.559288
-0.0276931
0.532468
-0.0296187
0.506844
-0.0316729
0.48254
-0.0339724
0.459391
-0.0363956
0.437033
-0.038631
0.415495
-0.0405783
0.394836
-0.0421567
0.375105
-0.0434657
0.356504
-0.0445355
0.338605
-0.0452484
0.321365
-0.0457903
0.305037
-0.0464971
0.289639
-0.0472959
0.274826
-0.0479937
0.260653
-0.0485393
0.247046
-0.0489333
0.234068
-0.049206
0.221838
-0.0493583
0.210124
-0.0493464
0.198853
-0.049156
0.188125
-0.0488739
0.177998
-0.0485566
0.168386
-0.0480675
0.159155
-0.0473079
0.150291
-0.04634
0.14185
-0.0452746
0.133859
-0.0441047
0.126194
-0.0429408
0.119018
-0.0416218
0.112276
-0.0397103
0.105078
-0.0371113
0.0972003
-0.0329005
0.0870757
-0.0255137
0.0715606
-0.0138077
0.046509
-0.00192421
0.0131183
-0.00128809
0.00175836
0.949392
-0.00080033
0.966254
-0.00342928
0.920425
-0.00573719
0.875127
-0.007853
0.83188
-0.0100199
0.791678
-0.0121837
0.753154
-0.0143936
0.717219
-0.0165975
0.682958
-0.0187995
0.650358
-0.0210844
0.619384
-0.0234381
0.589867
-0.0258618
0.561712
-0.0282845
0.534891
-0.0305951
0.509155
-0.0326284
0.484573
-0.0343757
0.461138
-0.0360791
0.438736
-0.0378695
0.417286
-0.0397825
0.396749
-0.0417241
0.377047
-0.0436095
0.358389
-0.0455605
0.340556
-0.0475688
0.323373
-0.0493763
0.306845
-0.0507007
0.290963
-0.0516936
0.275819
-0.0524984
0.261458
-0.0531269
0.247674
-0.053582
0.234523
-0.0538501
0.222106
-0.0539228
0.210197
-0.0538645
0.198795
-0.0536938
0.187954
-0.0533139
0.177618
-0.0526859
0.167758
-0.0519721
0.158441
-0.0512541
0.149573
-0.0504661
0.141062
-0.0494992
0.132892
-0.0484574
0.125153
-0.0474603
0.11802
-0.0459268
0.110742
-0.0439033
0.103055
-0.0407575
0.0940545
-0.0351812
0.0814994
-0.0253191
0.0616984
-0.00995838
0.0311483
-0.00125427
0.00441417
-0.00254235
0.00203114
0.947361
0.000138602
0.968147
-0.00195126
0.922515
-0.0040048
0.87718
-0.0061086
0.833984
-0.00813216
0.793702
-0.0101583
0.75518
-0.0123668
0.719427
-0.0145786
0.68517
-0.0168897
0.65267
-0.0192373
0.621732
-0.0215815
0.592212
-0.0239666
0.564097
-0.0264364
0.537361
-0.02912
0.511838
-0.0320784
0.487532
-0.0351398
0.464199
-0.038073
0.44167
-0.0407518
0.419965
-0.0431486
0.399145
-0.0452457
0.379144
-0.047058
0.360201
-0.0485434
0.342041
-0.0496919
0.324522
-0.0507674
0.30792
-0.0519548
0.292151
-0.0530898
0.276954
-0.0540521
0.26242
-0.0548753
0.248497
-0.0555565
0.235205
-0.056104
0.222653
-0.0565232
0.210616
-0.0567488
0.199021
-0.0567878
0.187993
-0.0567587
0.177589
-0.0566837
0.167683
-0.0563976
0.158155
-0.0558305
0.149006
-0.0550577
0.140289
-0.0542218
0.132057
-0.05343
0.124361
-0.0522758
0.116866
-0.0506451
0.109112
-0.0482244
0.100634
-0.043864
0.0896941
-0.0355639
0.0731993
-0.021484
0.0476186
-0.00567017
0.0153345
-0.000463861
-0.000792137
-0.00300622
0.00345786
0.943903
0.00174181
0.969863
-7.89511e-05
0.924336
-0.00184163
0.878943
-0.00372926
0.835872
-0.00577015
0.795743
-0.00793347
0.757343
-0.0101161
0.72161
-0.0123203
0.687375
-0.0147409
0.65509
-0.017352
0.624343
-0.0201431
0.595003
-0.0230121
0.566966
-0.0258231
0.540172
-0.0284372
0.514453
-0.0308394
0.489934
-0.0332572
0.466617
-0.0358221
0.444234
-0.0384857
0.422628
-0.0412284
0.401888
-0.0439659
0.381881
-0.0465871
0.362823
-0.0492089
0.344663
-0.0517665
0.32708
-0.0539426
0.310096
-0.0556659
0.293874
-0.0571104
0.278399
-0.0583138
0.263624
-0.0592626
0.249446
-0.0600145
0.235956
-0.0605576
0.223197
-0.0609019
0.21096
-0.0611264
0.199245
-0.061277
0.188143
-0.0612093
0.177521
-0.0608925
0.167366
-0.0604851
0.157747
-0.0600476
0.148568
-0.0595553
0.139797
-0.0589673
0.131469
-0.0581884
0.123582
-0.0569967
0.115674
-0.0551503
0.107265
-0.051767
0.0972508
-0.0451148
0.0830419
-0.0329493
0.0610338
-0.0142247
0.028894
-0.00270737
0.00381713
0.000157209
-0.00365672
-0.00284901
0.00340228
0.940501
0.00257578
0.97069
0.00127667
0.925635
-0.00012458
0.880344
-0.00167369
0.837421
-0.00328954
0.797359
-0.00522249
0.759276
-0.00731115
0.723698
-0.0095158
0.689579
-0.0118291
0.657403
-0.0142
0.626714
-0.0167625
0.597565
-0.0195992
0.569803
-0.0227749
0.543347
-0.0263117
0.517989
-0.0299985
0.493621
-0.033599
0.470218
-0.0370495
0.447685
-0.0403027
0.425881
-0.0433137
0.404899
-0.0460977
0.384665
-0.0485877
0.365313
-0.0507476
0.346823
-0.0526273
0.328959
-0.0544726
0.311942
-0.0562654
0.295667
-0.0578676
0.280001
-0.0592828
0.265039
-0.0605272
0.250691
-0.0616174
0.237047
-0.0625755
0.224155
-0.0633963
0.211781
-0.0640156
0.199864
-0.0644179
0.188546
-0.0647386
0.177842
-0.0650152
0.167643
-0.0650938
0.157826
-0.0649264
0.148401
-0.0645698
0.13944
-0.0640949
0.130994
-0.0633516
0.122839
-0.0620168
0.11434
-0.0594546
0.104703
-0.0540985
0.0918948
-0.0432459
0.0721893
-0.024892
0.0426799
-0.00726898
0.011271
-0.00104629
-0.00240556
0.000270751
-0.00497376
-0.00257825
0.0046908
0.93581
0.00385515
0.971525
0.00298368
0.926507
0.00175928
0.881568
0.000426817
0.838753
-0.000978858
0.798764
-0.0026698
0.760967
-0.00450369
0.725532
-0.00661987
0.691695
-0.00905481
0.659838
-0.011779
0.629438
-0.0146773
0.600463
-0.0176487
0.572774
-0.0205892
0.546288
-0.023511
0.520911
-0.0265829
0.496693
-0.0298574
0.473492
-0.0333269
0.451154
-0.0369315
0.429486
-0.0405956
0.408563
-0.0442477
0.388318
-0.047808
0.368873
-0.0512785
0.350293
-0.0545074
0.332188
-0.0572687
0.314703
-0.0596444
0.298042
-0.0616976
0.282054
-0.0634174
0.266759
-0.0648388
0.252112
-0.0660026
0.238211
-0.0669115
0.225064
-0.0676071
0.212477
-0.0682467
0.200504
-0.0689003
0.189199
-0.0693865
0.178328
-0.0696117
0.167868
-0.0696803
0.157895
-0.0696445
0.148365
-0.0694834
0.139279
-0.0691136
0.130624
-0.0682296
0.121955
-0.066279
0.112389
-0.061977
0.100401
-0.0527323
0.0826501
-0.0359257
0.0553826
-0.0142849
0.0210391
-0.00319284
0.000178917
-1.31456e-05
-0.00558526
0.00038372
-0.00537062
-0.00219453
0.00419909
0.931611
0.00418694
0.971537
0.00380885
0.926885
0.00307155
0.882306
0.00232996
0.839495
0.00117417
0.79992
-0.000186678
0.762328
-0.00171699
0.727063
-0.00346448
0.693443
-0.00535492
0.661729
-0.00758825
0.631671
-0.0102987
0.603174
-0.0135395
0.576015
-0.0172865
0.550035
-0.0213275
0.524952
-0.0254435
0.500809
-0.0295342
0.477583
-0.0336188
0.455239
-0.0376115
0.433479
-0.041434
0.412386
-0.0450941
0.391978
-0.0484183
0.372197
-0.0514743
0.353349
-0.0543751
0.335089
-0.0571326
0.31746
-0.059652
0.300562
-0.0619089
0.284311
-0.063895
0.268745
-0.0656606
0.253878
-0.0672479
0.239798
-0.0686693
0.226485
-0.0699455
0.213753
-0.0709924
0.201551
-0.0717927
0.19
-0.0725522
0.179088
-0.0733186
0.168634
-0.0739276
0.158504
-0.0742976
0.148735
-0.0744186
0.1394
-0.0740489
0.130254
-0.0726995
0.120605
-0.0692716
0.108961
-0.0615865
0.092716
-0.0465217
0.0675853
-0.0228864
0.0317473
-0.0059656
0.00411835
-0.000513695
-0.00527299
0.000810899
-0.00690986
0.000552005
-0.00511173
-0.00164253
0.00565221
0.925959
0.00519193
0.971998
0.00495622
0.92712
0.00425208
0.88301
0.00364101
0.840106
0.00285497
0.800706
0.00197577
0.763207
0.000738949
0.728299
-0.000959929
0.695142
-0.00297406
0.663743
-0.0052606
0.633958
-0.00773854
0.605652
-0.0103841
0.57866
-0.0132845
0.552935
-0.0166052
0.528273
-0.0203305
0.504534
-0.0243776
0.48163
-0.0287208
0.459582
-0.0333154
0.438073
-0.0379949
0.417065
-0.0427168
0.396699
-0.0474123
0.376893
-0.0518734
0.35781
-0.0559315
0.339147
-0.0595713
0.3211
-0.0628263
0.303817
-0.0656704
0.287155
-0.0680607
0.271135
-0.0700443
0.255861
-0.0716689
0.241423
-0.0729563
0.227772
-0.0739962
0.214793
-0.0750292
0.202584
-0.0761788
0.191149
-0.0772375
0.180146
-0.0781141
0.169511
-0.0788223
0.159212
-0.0793307
0.149243
-0.0794388
0.139509
-0.0787641
0.129579
-0.0761511
0.117992
-0.0699097
0.10272
-0.0563738
0.0791801
-0.0326666
0.0438781
-0.0109336
0.0100143
-0.00249748
-0.00431777
9.44562e-05
-0.00786493
0.000785622
-0.00760102
0.000466115
-0.00479222
-0.00117641
0.00495866
0.921
0.00515948
0.971797
0.00505671
0.927223
0.00460344
0.883463
0.00442967
0.84028
0.00395523
0.801181
0.00349329
0.763669
0.00289926
0.728893
0.00207282
0.695968
0.000806709
0.665009
-0.00105523
0.63582
-0.00362501
0.608222
-0.00684742
0.581883
-0.010525
0.556613
-0.0145357
0.532284
-0.0188271
0.508825
-0.02334
0.486143
-0.0280164
0.464259
-0.0328178
0.442875
-0.0375999
0.421847
-0.0422689
0.401368
-0.0467155
0.381339
-0.0509919
0.362087
-0.0551318
0.343287
-0.0589188
0.324887
-0.062352
0.30725
-0.0654425
0.290246
-0.0681933
0.273886
-0.0706013
0.258269
-0.0726876
0.243509
-0.0745334
0.229618
-0.0761907
0.21645
-0.0775734
0.203967
-0.0786946
0.19227
-0.0798975
0.181349
-0.081242
0.170856
-0.0826052
0.160575
-0.0836639
0.150302
-0.0839276
0.139772
-0.0822965
0.127948
-0.0773402
0.113036
-0.065398
0.0907775
-0.0425624
0.0563446
-0.0172711
0.0185867
-0.00542725
-0.00182952
-0.00194222
-0.0078028
-0.00080208
-0.00900507
-0.000215657
-0.00818744
9.004e-05
-0.00509792
-0.00108637
0.00546112
0.915539
0.00500672
0.972251
0.00501405
0.927216
0.00462795
0.883849
0.00454528
0.840362
0.00435998
0.801366
0.00422802
0.763801
0.0037508
0.729371
0.00305465
0.696664
0.00207761
0.665986
0.000895302
0.637002
-0.000576737
0.609694
-0.00258695
0.583893
-0.00529368
0.55932
-0.0086993
0.535689
-0.0126762
0.512802
-0.0171891
0.490656
-0.0221907
0.46926
-0.0276274
0.448311
-0.0333712
0.427591
-0.0392726
0.40727
-0.0451782
0.387245
-0.0507896
0.367698
-0.0560825
0.34858
-0.0609913
0.329796
-0.0653915
0.31165
-0.0692008
0.294055
-0.0723916
0.277077
-0.075048
0.260926
-0.0771904
0.245651
-0.0788294
0.231257
-0.0800896
0.21771
-0.0812989
0.205176
-0.0826671
0.193639
-0.0840363
0.182718
-0.0854948
0.172314
-0.0869752
0.162055
-0.0881627
0.15149
-0.0878633
0.139473
-0.0843784
0.124463
-0.0745192
0.103177
-0.0533824
0.0696406
-0.0251306
0.0280928
-0.00858993
0.00204608
-0.00370244
-0.00671702
-0.00235967
-0.00914557
-0.00178673
-0.00957801
-0.00119688
-0.0087773
-0.000420778
-0.00587402
-0.00150715
0.00445718
0.911082
0.00411221
0.972596
0.0039466
0.927381
0.00364892
0.884147
0.00379041
0.840221
0.00385995
0.801296
0.0043474
0.763314
0.00472316
0.728995
0.0049154
0.696472
0.00442327
0.666478
0.00328898
0.638136
0.00150404
0.611479
-0.000809453
0.586206
-0.00367762
0.562188
-0.00720509
0.539217
-0.0113486
0.516946
-0.0159889
0.495296
-0.0210397
0.474311
-0.0264923
0.453764
-0.0321579
0.433257
-0.0379129
0.413025
-0.0437193
0.393051
-0.0494147
0.373393
-0.0549091
0.354074
-0.0600487
0.334936
-0.0647784
0.31638
-0.0690772
0.298354
-0.0728293
0.280829
-0.0759917
0.264088
-0.0786144
0.248274
-0.0808287
0.233471
-0.0827027
0.219584
-0.0842338
0.206707
-0.0854695
0.194874
-0.086823
0.184072
-0.0884442
0.173935
-0.0903134
0.163924
-0.0917775
0.152954
-0.0908563
0.138552
-0.0839524
0.117559
-0.0658153
0.0850396
-0.0352516
0.0390769
-0.0127869
0.00562813
-0.00473755
-0.00600328
-0.00225646
-0.00919811
-0.00147669
-0.00992534
-0.0012528
-0.0098019
-0.00108788
-0.00894221
-0.000535467
-0.00642644
-0.00204262
0.00418084
0.906901
0.00379935
0.972978
0.00254707
0.928634
0.00255162
0.884142
0.00239075
0.840382
0.0025405
0.801147
0.00288578
0.762968
0.00329269
0.728588
0.00396863
0.695796
0.0045757
0.665871
0.0049743
0.637738
0.00476335
0.61169
0.00369453
0.587275
0.0017729
0.564109
-0.000957488
0.541947
-0.00458492
0.520573
-0.00906574
0.499777
-0.0143101
0.479555
-0.020313
0.459767
-0.0269541
0.439898
-0.0339175
0.419988
-0.0410743
0.400208
-0.0481674
0.380486
-0.0550948
0.361002
-0.0616203
0.341461
-0.0675195
0.322279
-0.072698
0.303532
-0.0770937
0.285225
-0.0806516
0.267646
-0.0834098
0.251032
-0.0853843
0.235446
-0.0867751
0.220975
-0.0879564
0.207888
-0.0891813
0.196099
-0.0904518
0.185342
-0.0918712
0.175355
-0.0932022
0.165255
-0.0931473
0.152899
-0.0894933
0.134898
-0.076597
0.104663
-0.0481739
0.0566165
-0.0185556
0.00945859
-0.00496568
-0.0079618
0.00114993
-0.0121189
0.00351028
-0.0115585
0.00352482
-0.00993989
0.00226014
-0.00853722
0.000762478
-0.00744455
5.46467e-06
-0.00566942
-0.00203715
0.00274156
0.904159
0.00223904
0.97348
0.000519452
0.930353
0.000189043
0.884473
9.97036e-05
0.840471
0.000680091
0.800566
0.00164479
0.762004
0.00274628
0.727486
0.00357157
0.694971
0.00409512
0.665348
0.00433829
0.637495
0.00419842
0.611829
0.00347999
0.587994
0.00195072
0.565639
-0.000485053
0.544383
-0.00376764
0.523856
-0.00788172
0.503891
-0.0127643
0.484438
-0.0183285
0.465331
-0.0245308
0.4461
-0.0312298
0.426687
-0.0382285
0.407207
-0.0453695
0.387628
-0.0524706
0.368103
-0.0593534
0.348344
-0.0658513
0.328777
-0.0717513
0.309432
-0.0769224
0.290396
-0.0812455
0.271969
-0.0846801
0.254467
-0.0872566
0.238022
-0.0891931
0.222912
-0.0904755
0.209171
-0.0912778
0.196902
-0.0918067
0.185871
-0.0921715
0.175719
-0.0919811
0.165065
-0.0899768
0.150895
-0.0824223
0.127343
-0.0630609
0.0853018
-0.0276167
0.0211723
-0.00462137
-0.0135368
0.00738853
-0.0199717
0.0137821
-0.0185125
0.0155854
-0.0133617
0.0140471
-0.0084016
0.0103118
-0.00480191
0.00576229
-0.00289506
0.00203181
-0.00193895
-5.3369e-06
0.00262302
0.901536
0.0022038
0.973899
-0.00113294
0.93369
-0.00195378
0.885294
-0.0028255
0.841343
-0.00284656
0.800587
-0.00206464
0.761222
-0.000449147
0.725871
0.00158092
0.692941
0.00372801
0.6632
0.00554457
0.635678
0.00682527
0.610549
0.00740269
0.587416
0.00715122
0.56589
0.00580684
0.545727
0.00323423
0.526428
-0.000456684
0.507582
-0.00526143
0.489243
-0.0112479
0.471317
-0.0183503
0.453203
-0.0261544
0.434491
-0.0343844
0.415437
-0.0429408
0.396184
-0.0514987
0.376661
-0.0598274
0.356673
-0.0677145
0.336664
-0.0749196
0.316637
-0.0811248
0.296601
-0.0861597
0.277004
-0.0899355
0.258243
-0.0923935
0.24048
-0.0936936
0.224212
-0.0943468
0.209824
-0.0948495
0.197404
-0.0951653
0.186187
-0.0949664
0.175521
-0.0927198
0.162819
-0.0858507
0.144025
-0.0696485
0.111141
-0.0402724
0.0559257
-0.00265858
-0.0164415
0.0166418
-0.0328372
0.0269044
-0.0302343
0.031006
-0.0226141
0.0304181
-0.0127738
0.0264659
-0.00444943
0.0201305
0.00153345
0.0125831
0.00465237
0.00507162
0.00557255
0.00506628
0.000896861
0.900639
0.00116271
0.973634
-0.00288237
0.937735
-0.00469846
0.88711
-0.00600279
0.842647
-0.00601121
0.800596
-0.00549937
0.76071
-0.0044684
0.72484
-0.00286122
0.691334
-0.000855268
0.661195
0.00119462
0.633628
0.0029792
0.608764
0.00414259
0.586253
0.00450693
0.565526
0.00397342
0.546261
0.00235834
0.528043
-0.000420597
0.510361
-0.00425778
0.49308
-0.00908273
0.476142
-0.0149563
0.459076
-0.0220524
0.441588
-0.0300017
0.423386
-0.0385495
0.404732
-0.0475188
0.38563
-0.0564738
0.365628
-0.0650431
0.345233
-0.0730985
0.324693
-0.0803682
0.303871
-0.0865787
0.283214
-0.0915456
0.26321
-0.0950851
0.24402
-0.097201
0.226328
-0.0979374
0.21056
-0.097442
0.196909
-0.0956666
0.184412
-0.0923082
0.172162
-0.0854722
0.155983
-0.0721756
0.130729
-0.0491686
0.0881339
-0.00943935
0.0161965
0.0196111
-0.045492
0.0320624
-0.0452884
0.0388346
-0.0370065
0.0411658
-0.0249453
0.039631
-0.011239
0.0345188
0.000662739
0.02695
0.00910225
0.0178408
0.0137615
0.0079087
0.0155047
0.012975
0.00327821
0.897361
0.00210987
0.974802
-0.00303206
0.942877
-0.00648448
0.890562
-0.00900926
0.845172
-0.00987086
0.801457
-0.00928451
0.760124
-0.00767724
0.723233
-0.00522587
0.688882
-0.00211387
0.658083
0.00124315
0.630271
0.00449918
0.605508
0.00718202
0.58357
0.00899267
0.563715
0.00968568
0.545568
0.00898455
0.528745
0.00673778
0.512608
0.00301141
0.496806
-0.00221874
0.481373
-0.00872284
0.46558
-0.016351
0.449216
-0.0251537
0.432189
-0.034669
0.414247
-0.0448264
0.395787
-0.0553619
0.376163
-0.0656049
0.355477
-0.0753753
0.334463
-0.0842433
0.312739
-0.091793
0.290764
-0.097469
0.268886
-0.101242
0.247793
-0.103246
0.228332
-0.103374
0.210688
-0.101199
0.194734