/*--------------------------------*- C++ -*----------------------------------*\
| =========                 |                                                 |
| \\      /  F ield         | OpenFOAM: The Open Source CFD Toolbox           |
|  \\    /   O peration     | Version:  v1912                                 |
|   \\  /    A nd           | Website:  www.openfoam.com                      |
|    \\/     M anipulation  |                                                 |
\*---------------------------------------------------------------------------*/
FoamFile
{
    version     2.0;
    format      ascii;
    class       volVectorField;
    location    "0.44";
    object      U;
}
// * * * * * * * * * * * * * * * * * * * * * * * * * * * * * * * * * * * * * //

dimensions      [0 1 -1 0 0 0 0];


internalField   nonuniform List<vector> 
6600
(
(39.8347 -0.0563782 0)
(40.0612 -0.0833238 9.24019e-20)
(40.0872 -0.0403362 6.4332e-18)
(40.0994 0.0120506 0)
(40.0993 0.0669843 8.10409e-18)
(40.1049 0.155616 2.79833e-19)
(40.1297 0.277357 -3.11911e-19)
(40.1574 0.417307 -3.47238e-19)
(40.1883 0.572509 6.95532e-18)
(40.2153 0.74693 -4.539e-19)
(40.2412 0.934292 0)
(40.2566 1.13558 -8.54834e-18)
(40.2789 1.34527 0)
(40.309 1.55516 -9.91946e-18)
(40.3247 1.7754 -1.26148e-17)
(40.31 2.0217 -6.63745e-18)
(40.2842 2.27438 0)
(40.2512 2.52767 0)
(40.2035 2.78136 1.04942e-17)
(40.132 3.05132 -1.03803e-17)
(40.0415 3.33316 -1.45687e-18)
(39.9651 3.63499 -4.97183e-18)
(39.872 3.94909 -9.31481e-18)
(39.8013 4.27111 2.10463e-18)
(39.6872 4.61902 7.15277e-18)
(39.5199 5.01718 0)
(39.3678 5.46067 1.79388e-17)
(39.249 5.95514 0)
(39.0398 6.50943 -9.28108e-18)
(38.7983 7.09227 -6.20527e-18)
(38.5834 7.71176 -2.35826e-19)
(38.3823 8.35178 -7.75807e-18)
(38.0923 9.05821 -2.94524e-18)
(37.7516 9.81031 6.51582e-18)
(37.4569 10.6035 2.81499e-19)
(37.2487 11.4665 8.08624e-18)
(37.0286 12.3956 1.39337e-17)
(36.7161 13.3827 1.51368e-17)
(36.4433 14.4498 -1.12152e-17)
(36.226 15.6638 1.23464e-17)
(36.0168 16.9552 6.80115e-18)
(35.7934 18.3055 0)
(35.5903 19.7549 -3.67139e-18)
(35.4473 21.3509 8.22173e-18)
(35.3273 23.0212 0)
(35.2691 24.8676 3.84238e-18)
(35.1785 26.65 8.1911e-18)
(35.5056 28.8606 0)
(33.9298 29.9385 0)
(24.689 23.5314 1.72504e-18)
(39.705 -0.059676 5.41649e-18)
(40.1068 -0.11793 -5.96722e-18)
(40.132 -0.0500636 0)
(40.1519 0.0247318 -1.14098e-19)
(40.1693 0.113861 8.2312e-18)
(40.1949 0.24339 2.8174e-19)
(40.2374 0.393129 1.27587e-22)
(40.2785 0.554019 -3.4832e-19)
(40.3181 0.731208 0)
(40.3526 0.924249 -1.33823e-17)
(40.3868 1.12676 -4.80413e-19)
(40.4084 1.33717 8.57682e-18)
(40.4186 1.55831 8.97489e-18)
(40.4218 1.78428 5.38182e-18)
(40.4387 1.99669 -4.60689e-21)
(40.4527 2.20449 8.35491e-19)
(40.4407 2.43044 -7.49458e-18)
(40.4261 2.68705 0)
(40.4118 2.97029 0)
(40.3923 3.26364 1.06308e-17)
(40.344 3.57523 1.49361e-18)
(40.2806 3.91009 -8.31112e-18)
(40.1827 4.27995 -7.46488e-18)
(40.0737 4.68731 -8.38008e-18)
(39.9726 5.10121 -7.02908e-18)
(39.8467 5.51653 -2.64428e-18)
(39.6607 5.96588 -3.02047e-18)
(39.4612 6.40949 -3.33579e-18)
(39.3014 6.88171 9.49626e-18)
(39.1087 7.40176 2.11265e-19)
(38.913 8.00216 -1.19342e-17)
(38.7224 8.6689 1.07304e-17)
(38.5588 9.3732 8.77147e-18)
(38.4038 10.1554 -9.9795e-18)
(38.2315 10.9966 2.91629e-19)
(38.0097 11.8965 -8.27042e-18)
(37.7876 12.8647 8.6986e-18)
(37.5886 13.8962 -5.21121e-18)
(37.4007 15.0047 -5.2772e-18)
(37.2616 16.1791 -5.8711e-18)
(37.1627 17.4305 0)
(37.0543 18.7638 0)
(36.9863 20.1655 -3.39475e-18)
(37.0103 21.6765 3.67751e-18)
(37.1008 23.2487 7.27202e-18)
(37.2684 24.983 -3.96749e-18)
(37.4268 26.7004 -6.91762e-18)
(37.8646 28.7257 0)
(36.2704 29.3672 2.05658e-18)
(25.7579 22.508 -1.6356e-18)
(39.5897 -0.0555034 -3.12808e-20)
(40.177 -0.126711 6.08257e-18)
(40.1756 -0.0200136 6.61029e-18)
(40.1879 0.0781304 -1.60404e-22)
(40.2017 0.1929 -4.0886e-19)
(40.2347 0.331933 2.82714e-19)
(40.2786 0.48579 0)
(40.3249 0.649763 0)
(40.3684 0.832822 0)
(40.41 1.02329 7.37296e-18)
(40.4528 1.22691 -4.82322e-19)
(40.4925 1.43696 -8.63412e-18)
(40.5375 1.65276 -4.23108e-18)
(40.5724 1.8837 1.00917e-17)
(40.5861 2.13799 6.00928e-18)
(40.6026 2.39804 -8.44768e-19)
(40.6027 2.65483 1.60288e-17)
(40.5826 2.90475 -8.4352e-18)
(40.5413 3.17224 -9.45607e-18)
(40.4906 3.47012 0)
(40.4452 3.78109 -5.94837e-18)
(40.3983 4.11054 6.72555e-18)
(40.3538 4.44207 7.55448e-18)
(40.3062 4.79431 8.48097e-18)
(40.224 5.21351 7.15176e-18)
(40.1223 5.65396 -1.29787e-18)
(40.0618 6.16163 -1.4861e-18)
(39.9495 6.73409 -4.9522e-18)
(39.7927 7.33318 -1.86766e-18)
(39.623 7.94403 6.38445e-18)
(39.4874 8.57022 2.33925e-18)
(39.3596 9.24287 0)
(39.1327 9.96545 -1.16514e-17)
(38.9108 10.7284 3.22906e-18)
(38.7563 11.5468 7.15828e-18)
(38.6991 12.4267 1.16586e-17)
(38.6255 13.3655 -4.60131e-18)
(38.4925 14.3385 -4.76863e-18)
(38.4166 15.3802 3.6354e-19)
(38.3848 16.5447 0)
(38.4001 17.7621 -5.61633e-18)
(38.446 19.0419 0)
(38.531 20.4039 0)
(38.7018 21.8547 -6.54606e-18)
(38.9383 23.3384 -3.52474e-18)
(39.2601 24.9668 2.76691e-18)
(39.6271 26.6015 3.162e-18)
(40.1895 28.3489 0)
(38.4561 28.5585 5.62332e-19)
(26.4413 21.1192 -6.29863e-19)
(39.4797 -0.0489015 -5.4229e-18)
(40.2582 -0.111421 4.65872e-20)
(40.2675 0.0274129 -6.79073e-18)
(40.2902 0.127343 -7.20625e-18)
(40.3158 0.262838 -8.03846e-18)
(40.3639 0.431069 -4.37446e-18)
(40.4199 0.602054 -3.14429e-19)
(40.4732 0.782128 0)
(40.526 0.969444 6.22095e-18)
(40.5695 1.16695 7.36918e-18)
(40.6121 1.37201 -4.83799e-19)
(40.6368 1.58927 -5.42018e-19)
(40.652 1.8104 -4.23789e-18)
(40.6848 2.02303 -6.98388e-19)
(40.7157 2.2403 7.28839e-19)
(40.7314 2.47465 -8.48448e-19)
(40.7545 2.74217 9.08516e-19)
(40.7681 3.02988 9.5746e-18)
(40.7915 3.31689 1.31004e-17)
(40.7759 3.62251 0)
(40.7432 3.95393 4.91463e-20)
(40.6992 4.32856 0)
(40.6206 4.7455 0)
(40.5539 5.16623 -2.12068e-18)
(40.5075 5.59864 7.07108e-18)
(40.4025 6.06677 6.68624e-18)
(40.2529 6.50799 -1.48459e-18)
(40.1578 6.99296 6.72949e-18)
(40.073 7.51794 0)
(39.9602 8.10667 0)
(39.8405 8.76153 4.56627e-18)
(39.7529 9.44335 0)
(39.7305 10.1686 2.97684e-18)
(39.6776 10.9674 6.33174e-18)
(39.6004 11.8121 -1.06525e-17)
(39.4965 12.7187 -1.16582e-17)
(39.455 13.6805 1.2395e-17)
(39.4365 14.707 -4.58656e-18)
(39.4442 15.7632 2.8916e-19)
(39.5267 16.8632 3.41796e-19)
(39.656 18.022 1.09566e-17)
(39.8188 19.2378 0)
(40.0516 20.4963 0)
(40.3883 21.8408 3.12512e-18)
(40.813 23.2093 2.48942e-18)
(41.3214 24.6888 -6.52555e-19)
(41.8631 26.2378 1.69116e-18)
(42.3126 27.6742 -1.8681e-18)
(40.1822 27.4024 -7.05105e-19)
(26.6755 19.4191 0)
(39.3804 -0.0300799 -2.0989e-20)
(40.3557 -0.0795331 5.95353e-18)
(40.3397 0.11163 6.48857e-18)
(40.3775 0.213186 7.46516e-18)
(40.4027 0.362666 0)
(40.45 0.525686 2.55054e-20)
(40.5069 0.697395 0)
(40.5581 0.874412 -3.50295e-19)
(40.6163 1.06125 -1.20814e-17)
(40.6685 1.25492 -7.40643e-18)
(40.734 1.45224 4.84396e-19)
(40.7944 1.66097 5.42831e-19)
(40.8373 1.88706 -6.04114e-19)
(40.8649 2.13119 -5.42677e-18)
(40.898 2.38805 -1.28654e-17)
(40.9202 2.64379 8.45312e-19)
(40.9352 2.90188 -1.51761e-17)
(40.9227 3.18264 1.06682e-18)
(40.9148 3.48725 -4.77094e-18)
(40.9134 3.80827 -2.6699e-18)
(40.8896 4.14058 7.5082e-18)
(40.8832 4.45884 0)
(40.8742 4.81657 0)
(40.8458 5.22489 -4.17608e-18)
(40.8105 5.66951 -4.75909e-18)
(40.7941 6.14976 6.56847e-18)
(40.7774 6.71184 -1.47874e-18)
(40.6925 7.32497 0)
(40.608 7.94236 1.84507e-18)
(40.5517 8.56635 -2.05488e-18)
(40.5128 9.2185 -4.64096e-18)
(40.4642 9.93075 -7.48747e-18)
(40.3344 10.6607 2.80983e-18)
(40.24 11.4184 -3.06103e-18)
(40.2431 12.227 3.40621e-18)
(40.3358 13.089 0)
(40.4114 13.9968 -4.13515e-18)
(40.4752 14.9244 -8.34509e-18)
(40.5949 15.9298 4.68316e-18)
(40.7642 17.0201 5.08269e-18)
(40.9979 18.1289 -5.32461e-18)
(41.2865 19.2701 0)
(41.6374 20.4597 0)
(42.0809 21.6881 2.25748e-18)
(42.6049 22.9194 -5.06377e-18)
(43.2157 24.254 -1.44095e-18)
(43.8766 25.6708 -4.62913e-19)
(44.3016 26.7799 1.11326e-18)
(41.6434 26.0464 4.83278e-19)
(26.3852 17.4227 -6.86678e-19)
(39.308 -0.0154074 5.37368e-18)
(40.4683 -0.0416793 -6.20074e-20)
(40.4905 0.169753 -6.6136e-18)
(40.5531 0.280702 3.63991e-18)
(40.5857 0.45815 0)
(40.6436 0.626803 4.66805e-18)
(40.7066 0.802011 -1.5683e-19)
(40.7627 0.992253 -5.56898e-18)
(40.8307 1.18036 6.2477e-18)
(40.8795 1.38006 0)
(40.9248 1.5875 4.85318e-19)
(40.9707 1.79702 3.76985e-18)
(41.0184 2.0078 -5.42125e-18)
(41.0598 2.22646 6.7474e-19)
(41.0978 2.46172 6.83229e-18)
(41.1374 2.72561 -8.44665e-19)
(41.1765 3.00621 4.79731e-18)
(41.2217 3.29586 -1.05903e-18)
(41.2511 3.60145 1.19157e-18)
(41.2805 3.92968 3.95882e-18)
(41.2794 4.31969 5.17338e-18)
(41.2578 4.73954 -4.0355e-21)
(41.2213 5.16939 1.86817e-18)
(41.2068 5.60229 7.31751e-18)
(41.1833 6.0612 0)
(41.0859 6.52044 -5.30421e-18)
(41.0503 6.97302 1.46371e-18)
(41.0356 7.47036 -9.76438e-22)
(41.0076 8.03459 -6.23255e-20)
(40.9777 8.65764 2.01822e-18)
(40.9581 9.33102 -4.36999e-18)
(41.0066 10.0234 5.04436e-18)
(41.1006 10.7643 0)
(41.1657 11.5585 0)
(41.1872 12.3833 0)
(41.2186 13.254 0)
(41.3556 14.1683 -5.49388e-18)
(41.5141 15.1297 1.0146e-17)
(41.7172 16.0825 0)
(42.0004 17.0634 3.4592e-20)
(42.3239 18.083 -2.3865e-19)
(42.7092 19.1347 4.24869e-18)
(43.1742 20.1971 -2.37073e-18)
(43.7344 21.3072 0)
(44.383 22.4031 -7.38656e-19)
(45.0981 23.5699 1.89147e-18)
(45.8078 24.8598 -1.44215e-18)
(45.8734 25.6168 1.34655e-19)
(42.3634 24.3314 1.62119e-18)
(25.4455 15.1477 -1.46111e-18)
(39.2488 -0.00417918 -5.36668e-18)
(40.6103 -0.0136357 -1.18078e-17)
(40.6235 0.245831 1.02441e-19)
(40.6952 0.345206 -3.65149e-18)
(40.7229 0.539203 3.90055e-18)
(40.7793 0.696514 -1.40522e-19)
(40.8413 0.871931 5.13768e-18)
(40.9021 1.05159 5.5913e-18)
(40.9722 1.24286 6.3758e-18)
(41.0524 1.43668 -2.16147e-19)
(41.1356 1.64197 -3.84499e-18)
(41.1995 1.86488 -3.96765e-20)
(41.2521 2.09988 4.84123e-18)
(41.3057 2.34964 0)
(41.3592 2.60341 0)
(41.4042 2.86613 4.2233e-19)
(41.428 3.14901 7.07084e-18)
(41.4416 3.45492 0)
(41.4517 3.78348 5.91928e-19)
(41.4863 4.10188 -5.99232e-18)
(41.5192 4.42513 -5.22679e-18)
(41.5571 4.77499 2.44761e-18)
(41.5818 5.16603 0)
(41.5881 5.60574 -4.18843e-18)
(41.6402 6.06556 -1.1586e-18)
(41.7163 6.62551 1.29248e-18)
(41.7164 7.2255 0)
(41.7197 7.84071 0)
(41.7237 8.45001 -1.9031e-18)
(41.757 9.0661 -1.8669e-18)
(41.8086 9.71798 6.58535e-18)
(41.8016 10.4168 -2.40472e-18)
(41.7995 11.1312 -2.58661e-18)
(41.8394 11.8714 5.6958e-18)
(41.9986 12.6485 -7.63557e-18)
(42.2204 13.4573 -1.50544e-18)
(42.4202 14.286 3.70877e-18)
(42.6456 15.1255 -3.9406e-18)
(42.9257 16.0437 3.74026e-18)
(43.2677 17.0059 4.625e-20)
(43.6658 17.9484 -2.85657e-19)
(44.1195 18.8886 -2.16334e-18)
(44.6465 19.8503 -1.6935e-18)
(45.2573 20.8101 1.88125e-18)
(45.9409 21.749 -8.05551e-19)
(46.693 22.7737 0)
(47.3641 23.8584 -2.63244e-19)
(47.2558 24.2656 8.45348e-19)
(42.7097 22.4762 -1.1155e-18)
(23.7591 12.6378 -6.33944e-19)
(39.2289 0.0205021 5.23135e-18)
(40.7839 0.0150293 5.85031e-18)
(40.8224 0.283871 5.09922e-20)
(40.9001 0.373318 -3.60175e-18)
(40.9329 0.586868 -8.04301e-18)
(40.9998 0.749753 4.59164e-18)
(41.0724 0.93209 -1.01077e-17)
(41.1326 1.12355 2.75836e-18)
(41.2028 1.31617 -6.20527e-18)
(41.2654 1.5193 -3.64245e-18)
(41.3399 1.72429 8.16502e-18)
(41.4207 1.93495 -4.84838e-18)
(41.49 2.1568 -4.76468e-18)
(41.5545 2.39286 -9.81399e-22)
(41.6242 2.65101 -2.59889e-18)
(41.6999 2.92856 3.32158e-18)
(41.7758 3.21736 -3.76939e-18)
(41.85 3.52194 0)
(41.9056 3.85281 0)
(41.9621 4.23025 0)
(42.0134 4.65003 -7.31575e-19)
(42.0337 5.09049 -2.48476e-18)
(42.0656 5.53141 -2.68532e-18)
(42.0852 5.98905 -1.01787e-18)
(42.0646 6.43889 0)
(42.0675 6.88272 0)
(42.1101 7.33784 2.7537e-18)
(42.1749 7.85792 -1.5495e-18)
(42.2108 8.44605 -7.63478e-20)
(42.2614 9.06916 9.32217e-20)
(42.3447 9.7213 3.50109e-20)
(42.5411 10.404 -2.13477e-18)
(42.7202 11.1273 1.23115e-18)
(42.8783 11.8781 -3.98697e-18)
(42.997 12.6511 3.02986e-18)
(43.1705 13.445 1.73297e-18)
(43.4511 14.2771 1.42895e-19)
(43.7419 15.123 -1.7603e-18)
(44.0796 15.9281 -2.04246e-18)
(44.4915 16.7484 -1.8956e-18)
(44.9357 17.5974 -2.67649e-19)
(45.4488 18.4525 -1.56094e-18)
(46.0398 19.2856 1.73623e-18)
(46.706 20.1282 0)
(47.4476 20.9349 0)
(48.2528 21.858 0)
(48.7311 22.6158 0)
(47.984 22.7302 0)
(41.9532 20.2795 -1.13487e-18)
(21.1974 9.96108 1.88961e-18)
(39.2382 0.0329473 -5.18004e-18)
(40.9559 0.0183087 0)
(40.9884 0.336277 0)
(41.066 0.403948 3.66683e-18)
(41.0913 0.62641 3.95218e-18)
(41.1577 0.777045 -4.60323e-18)
(41.2332 0.953763 5.12322e-18)
(41.3164 1.13339 -2.76716e-18)
(41.4067 1.3246 3.05042e-18)
(41.4978 1.52201 3.65332e-18)
(41.5819 1.73935 -3.83713e-18)
(41.6684 1.96372 3.96598e-18)
(41.7542 2.20462 7.14611e-18)
(41.8377 2.45694 0)
(41.9218 2.72193 2.98692e-18)
(42.0019 3.00661 -3.75339e-18)
(42.0596 3.31453 -7.51103e-22)
(42.1119 3.64384 -4.0975e-18)
(42.1662 3.9689 5.1487e-18)
(42.2323 4.29072 0)
(42.3346 4.61945 0)
(42.4228 4.99146 3.16436e-18)
(42.4944 5.41218 1.03608e-19)
(42.5937 5.8776 -3.92444e-18)
(42.744 6.40039 -1.10581e-18)
(42.8361 6.97979 3.64623e-18)
(42.913 7.58286 -5.44886e-18)
(43.0048 8.17764 4.43972e-18)
(43.0941 8.77155 -2.49357e-18)
(43.2058 9.36765 1.82309e-18)
(43.3264 10.005 -1.01035e-18)
(43.3806 10.6745 3.42723e-18)
(43.4713 11.3381 -1.0858e-18)
(43.6323 12.0201 2.64941e-18)
(43.9126 12.7341 0)
(44.2138 13.4664 1.40559e-18)
(44.4995 14.1844 1.63167e-18)
(44.8381 14.91 1.58425e-19)
(45.22 15.6979 -1.36004e-18)
(45.6591 16.4884 1.6994e-18)
(46.1377 17.2271 -2.41616e-19)
(46.6615 17.9481 1.30993e-18)
(47.2571 18.6747 -2.56417e-18)
(47.9271 19.3701 4.24096e-19)
(48.6544 20.0384 5.08402e-19)
(49.4297 20.8506 4.00636e-19)
(49.6463 21.2407 0)
(48.3535 21.08 8.70413e-19)
(40.7163 18.0233 -3.80767e-19)
(17.7106 7.21035 0)
(39.263 0.0450632 1.99011e-20)
(41.1523 0.0223414 -6.31961e-23)
(41.2013 0.34096 -3.21793e-18)
(41.2914 0.396466 0)
(41.3318 0.641724 -6.18747e-20)
(41.407 0.789486 -2.11915e-18)
(41.4756 0.973851 0)
(41.5487 1.15825 2.71116e-18)
(41.6377 1.34376 -3.24953e-18)
(41.7309 1.53871 2.11781e-19)
(41.8287 1.74245 3.75337e-18)
(41.9258 1.95713 -1.88993e-18)
(42.0217 2.18411 -2.66458e-18)
(42.1199 2.43346 0)
(42.2271 2.70054 0)
(42.3534 2.97939 0)
(42.478 3.28251 -3.16027e-18)
(42.5987 3.60921 4.11739e-18)
(42.6964 3.98327 -7.41196e-18)
(42.7895 4.40076 6.32739e-19)
(42.8921 4.83534 -1.41046e-18)
(42.9843 5.27945 -2.39833e-18)
(43.0634 5.72093 6.9937e-18)
(43.0997 6.16368 5.86198e-18)
(43.164 6.61228 0)
(43.2528 7.03831 -3.02657e-18)
(43.3674 7.5117 5.92626e-18)
(43.4946 8.04732 -3.68855e-18)
(43.6039 8.63273 1.59191e-18)
(43.7312 9.23943 -8.81623e-19)
(43.9321 9.86371 9.38321e-19)
(44.2138 10.5028 -3.04719e-18)
(44.4719 11.1789 3.40447e-18)
(44.6965 11.8584 -3.51859e-18)
(44.8891 12.5454 -1.23447e-18)
(45.1658 13.2372 2.67169e-18)
(45.5235 13.97 -2.77155e-18)
(45.8801 14.6835 1.36282e-18)
(46.286 15.3411 2.09268e-20)
(46.7547 16.0011 0)
(47.2393 16.6732 -1.47879e-18)
(47.784 17.3217 -5.47361e-19)
(48.4037 17.9262 1.70164e-19)
(49.0691 18.5127 7.76004e-19)
(49.8189 19.0948 -1.50096e-19)
(50.4219 19.6436 1.34398e-20)
(50.3251 19.8596 0)
(47.8525 19.245 9.5121e-19)
(37.8743 15.3734 -1.65397e-18)
(13.151 4.42415 0)
(39.2943 0.0518175 0)
(41.3528 0.00580971 0)
(41.3949 0.354077 1.67016e-18)
(41.4836 0.390388 -1.10195e-19)
(41.5185 0.635639 2.00711e-18)
(41.5997 0.763899 2.1924e-18)
(41.6808 0.944274 0)
(41.7851 1.11461 -2.71739e-18)
(41.8887 1.29962 2.98392e-18)
(41.9934 1.49908 0)
(42.1039 1.70849 -5.61614e-18)
(42.2202 1.93279 -3.45746e-20)
(42.337 2.16843 -2.90476e-19)
(42.4546 2.42213 3.23862e-19)
(42.5657 2.69808 0)
(42.6775 2.98877 0)
(42.78 3.30875 2.07929e-18)
(42.8863 3.63247 1.72675e-18)
(42.9924 3.95611 5.54436e-20)
(43.1085 4.28242 3.09562e-19)
(43.2622 4.63004 -6.90037e-19)
(43.4177 5.02282 3.84741e-19)
(43.5794 5.4778 -3.4622e-18)
(43.7597 5.96588 -1.45169e-18)
(43.9345 6.50256 1.5207e-18)
(44.0985 7.09874 2.25428e-18)
(44.2428 7.68292 -1.9649e-18)
(44.412 8.23698 -2.05735e-18)
(44.5716 8.80483 0)
(44.7449 9.37905 0)
(44.9086 9.98766 0)
(45.0431 10.6069 2.01729e-18)
(45.1981 11.2119 1.0209e-18)
(45.4395 11.8316 1.18153e-18)
(45.7863 12.4745 -1.12927e-18)
(46.1238 13.1105 -1.17803e-18)
(46.4632 13.7052 7.38189e-19)
(46.8583 14.311 -1.29356e-18)
(47.2668 14.9522 6.85458e-19)
(47.7165 15.5714 5.94476e-19)
(48.2001 16.1256 5.34571e-19)
(48.7183 16.6559 -5.96048e-19)
(49.2894 17.1698 0)
(49.938 17.65 -2.0302e-19)
(50.6616 18.1632 1.05811e-19)
(50.9169 18.3989 6.03325e-20)
(50.3747 18.3318 0)
(46.6428 17.1746 -3.82485e-19)
(34.4169 12.5945 2.80638e-19)
(7.59829 1.59387 0)
(39.3249 0.05688 1.23485e-18)
(41.5588 -0.00400323 0)
(41.6195 0.327983 3.1353e-18)
(41.7109 0.34298 -1.72627e-18)
(41.7493 0.599646 -1.94879e-18)
(41.8344 0.708749 6.72137e-20)
(41.9063 0.897158 -7.48041e-20)
(42.0078 1.06459 0)
(42.1296 1.23856 -2.89704e-18)
(42.255 1.42621 1.53473e-18)
(42.3813 1.62824 1.85646e-18)
(42.5104 1.84099 -2.19776e-18)
(42.6461 2.07457 1.13163e-18)
(42.79 2.3213 3.18429e-19)
(42.9399 2.58621 -1.77523e-19)
(43.1136 2.8679 0)
(43.2891 3.17277 2.00241e-18)
(43.447 3.52265 -2.22905e-18)
(43.6021 3.92139 3.31621e-19)
(43.7259 4.35724 -1.75422e-21)
(43.8602 4.7929 -3.37083e-19)
(44.0052 5.2191 0)
(44.1282 5.64758 -4.10614e-19)
(44.2365 6.09548 -1.33091e-18)
(44.3695 6.51308 -2.05577e-18)
(44.5314 6.93251 -2.26352e-18)
(44.7054 7.42562 0)
(44.8896 7.96353 1.36454e-18)
(45.0651 8.52582 2.12437e-18)
(45.2551 9.09521 -1.18673e-18)
(45.5405 9.67617 2.08291e-18)
(45.8774 10.2722 8.84688e-19)
(46.1903 10.8937 -1.41837e-18)
(46.4533 11.4979 5.3196e-19)
(46.6931 12.095 1.13906e-18)
(47.0162 12.6945 6.48371e-19)
(47.3812 13.3351 6.18829e-19)
(47.7433 13.9276 0)
(48.1634 14.462 5.42035e-19)
(48.626 14.9793 -1.22376e-18)
(49.0804 15.4913 -5.46661e-19)
(49.5757 15.9583 5.20075e-19)
(50.1532 16.3823 -2.92555e-19)
(50.7756 16.8113 2.03606e-19)
(51.2671 17.1206 -8.27855e-20)
(51.2944 17.1731 -3.01086e-21)
(49.9236 16.7705 0)
(44.1998 14.8637 8.09558e-19)
(28.9936 9.20672 -7.50907e-19)
(4.32073 0.0712615 -2.67625e-19)
(39.3485 0.0494509 -1.23586e-18)
(41.7397 -0.0330499 1.36686e-18)
(41.8067 0.295093 -1.54517e-18)
(41.8893 0.29604 1.7012e-18)
(41.93 0.538316 9.45624e-19)
(42.0384 0.610906 6.62647e-20)
(42.124 0.794809 -3.68643e-20)
(42.2516 0.943875 0)
(42.382 1.12077 1.35639e-18)
(42.5211 1.31076 -2.34444e-18)
(42.6704 1.51318 0)
(42.8258 1.72894 1.25902e-19)
(42.9857 1.96456 -3.03847e-19)
(43.1489 2.22185 -1.07903e-18)
(43.2971 2.50089 1.54759e-18)
(43.4538 2.80223 -6.5167e-22)
(43.6068 3.11316 -2.15392e-19)
(43.7549 3.41873 0)
(43.9226 3.71961 1.11005e-18)
(44.0959 4.05495 -1.30651e-18)
(44.304 4.42914 1.63992e-19)
(44.5372 4.85419 0)
(44.756 5.30639 0)
(44.9822 5.80026 9.33711e-19)
(45.2147 6.35495 -2.39789e-19)
(45.4254 6.9384 1.56746e-18)
(45.6316 7.4706 -5.80112e-19)
(45.8506 7.99934 3.20582e-19)
(46.0628 8.54604 -1.07854e-18)
(46.2813 9.09964 -3.78799e-19)
(46.4793 9.67161 -1.27383e-18)
(46.6432 10.2352 7.96165e-19)
(46.8349 10.7819 -3.98934e-19)
(47.1217 11.3434 4.62717e-19)
(47.4907 11.9202 4.83222e-19)
(47.8341 12.4634 5.50265e-19)
(48.1928 12.9529 0)
(48.5894 13.4602 -7.59518e-19)
(48.9607 13.9754 2.79978e-19)
(49.3585 14.4646 5.36038e-19)
(49.7877 14.8852 -5.11833e-19)
(50.2496 15.2827 -3.67472e-20)
(50.7339 15.6473 1.26985e-19)
(51.323 16.0127 -2.58128e-20)
(51.4927 16.1232 3.66966e-20)
(51.0331 15.9878 -1.62111e-19)
(48.3908 15.116 1.12166e-19)
(40.3634 12.345 0)
(22.6626 5.8531 -3.84729e-19)
(1.7479 -0.418823 7.74376e-19)
(39.3442 0.0497587 -2.35505e-21)
(41.9 -0.062431 -1.37582e-18)
(41.9941 0.237905 3.64494e-19)
(42.0803 0.21009 1.31882e-20)
(42.1232 0.447749 -9.46259e-19)
(42.2249 0.502665 0)
(42.3184 0.682051 0)
(42.463 0.80982 4.03099e-20)
(42.6167 0.969729 -2.20503e-18)
(42.7731 1.14465 8.06393e-19)
(42.9368 1.33343 -5.54937e-20)
(43.1114 1.54395 1.23579e-19)
(43.2951 1.76591 -7.05233e-19)
(43.4995 2.00642 7.08991e-19)
(43.7111 2.26643 -2.04742e-18)
(43.9414 2.54805 3.72781e-19)
(44.1772 2.87511 -4.13662e-19)
(44.3844 3.25529 -1.15874e-19)
(44.5742 3.66352 1.30565e-18)
(44.7427 4.07912 8.76389e-19)
(44.8997 4.49654 1.69571e-21)
(45.0957 4.90442 1.75508e-19)
(45.2786 5.33408 0)
(45.443 5.75807 7.59787e-19)
(45.6231 6.15053 2.28912e-21)
(45.8427 6.57701 -2.90335e-19)
(46.0576 7.08148 -1.40212e-19)
(46.2902 7.59793 -2.93354e-19)
(46.5137 8.13049 0)
(46.7459 8.66351 -1.7205e-19)
(47.0777 9.20962 -9.52026e-19)
(47.457 9.76962 -8.32212e-19)
(47.7898 10.3343 4.72989e-19)
(48.0589 10.8803 -6.79622e-19)
(48.3096 11.4119 4.63375e-19)
(48.629 11.9592 2.29041e-19)
(48.9635 12.534 0)
(49.289 13.0383 5.11337e-19)
(49.6724 13.4881 2.20871e-19)
(50.068 13.8971 -2.4671e-19)
(50.4451 14.2979 2.22978e-19)
(50.8379 14.6475 -1.95126e-19)
(51.3979 15.031 0)
(51.6308 15.2176 -5.0966e-20)
(51.5199 15.2246 0)
(50.2962 14.8693 2.61453e-20)
(45.9003 13.5248 -8.85951e-20)
(34.736 9.9766 6.62379e-20)
(12.9015 2.71176 0)
(-0.429895 -0.20078 1.09739e-20)
(39.3069 0.00728359 -2.92048e-22)
(42.0236 -0.109955 -3.27443e-22)
(42.1466 0.158874 -3.75733e-19)
(42.2157 0.118326 -1.61822e-21)
(42.2838 0.328414 -1.24676e-20)
(42.4089 0.355436 -2.00013e-21)
(42.5116 0.527245 2.22637e-21)
(42.67 0.637546 -4.9461e-21)
(42.84 0.791997 7.16933e-19)
(43.0188 0.956679 1.21222e-20)
(43.2111 1.13408 6.7977e-21)
(43.4103 1.33652 -1.51319e-20)
(43.6117 1.56384 -5.35781e-19)
(43.8206 1.81513 6.04824e-19)
(44.0228 2.0892 7.02704e-19)
(44.2303 2.37678 -3.731e-19)
(44.4525 2.65491 4.01159e-19)
(44.6805 2.94304 1.39307e-20)
(44.9155 3.25984 1.54053e-20)
(45.1676 3.61509 0)
(45.4277 4.01553 1.87645e-20)
(45.704 4.43985 1.04358e-20)
(45.9737 4.8899 -1.16652e-20)
(46.2433 5.39346 0)
(46.5126 5.95149 0)
(46.7652 6.49248 -4.81982e-19)
(47.0058 6.9931 0)
(47.2575 7.51419 2.93741e-19)
(47.5028 8.04173 0)
(47.7504 8.56653 -1.00604e-20)
(47.97 9.10257 3.87156e-19)
(48.1416 9.62404 -2.40679e-20)
(48.3469 10.137 4.34301e-19)
(48.6467 10.6562 -3.29192e-20)
(49.0047 11.1842 -1.97706e-19)
(49.3263 11.6511 -2.58105e-19)
(49.6613 12.077 6.65638e-21)
(50.018 12.5269 0)
(50.3225 12.9674 3.25267e-21)
(50.6452 13.3916 -3.12054e-21)
(50.9732 13.7364 0)
(51.3849 14.1119 2.52249e-21)
(51.6887 14.4207 6.89597e-21)
(51.7063 14.4892 4.28725e-20)
(51.1425 14.4447 6.08079e-22)
(48.5804 13.7646 0)
(41.543 11.7237 0)
(26.4398 7.14114 3.99442e-21)
(5.34035 0.953383 -4.34456e-21)
(-1.73032 -0.0015129 2.05969e-20)
(39.2235 -0.00237845 -5.87499e-19)
(42.1204 -0.139 -6.49193e-19)
(42.2691 0.0817091 -3.56969e-19)
(42.3366 0.0165345 -4.09107e-19)
(42.4072 0.205843 -4.19689e-19)
(42.5283 0.212987 4.82329e-19)
(42.6585 0.361844 0)
(42.8413 0.439585 0)
(43.0225 0.581373 -3.42072e-19)
(43.2197 0.720651 -1.21208e-20)
(43.4339 0.882711 3.95553e-19)
(43.6589 1.05966 2.96657e-20)
(43.8995 1.25858 4.87418e-19)
(44.1615 1.47732 -5.40425e-19)
(44.4361 1.72349 -6.60134e-19)
(44.7266 2.01892 0)
(45.0111 2.36424 0)
(45.2747 2.74057 -1.39285e-20)
(45.5133 3.12994 -1.54027e-20)
(45.73 3.52941 5.27232e-19)
(45.9378 3.93311 -1.8761e-20)
(46.1834 4.34472 0)
(46.4282 4.76701 0)
(46.637 5.17085 9.62527e-20)
(46.8661 5.55834 4.13925e-19)
(47.1221 6.00395 -1.32083e-19)
(47.3776 6.49858 0)
(47.6396 6.98869 2.64718e-19)
(47.8916 7.4933 0)
(48.1524 8.0117 1.00577e-20)
(48.5087 8.53413 0)
(48.8963 9.06891 0)
(49.2263 9.60614 -8.86528e-20)
(49.4837 10.1271 -7.91541e-20)
(49.7288 10.6263 0)
(50.0274 11.1598 0)
(50.3232 11.6974 -6.65276e-21)
(50.5908 12.1638 0)
(50.8975 12.5813 -3.25051e-21)
(51.1881 12.9408 9.42326e-20)
(51.5059 13.3344 -7.92283e-20)
(51.8271 13.727 1.4741e-20)
(51.9326 13.861 1.80729e-20)
(51.6594 13.976 6.71681e-20)
(50.1134 13.7153 1.1318e-20)
(45.5621 12.5318 -8.00371e-20)
(34.9908 9.56605 2.61123e-20)
(15.3008 3.75705 9.65869e-21)
(0.983479 0.349265 -5.54396e-21)
(-2.26644 0.027158 0)
(39.0982 -0.0644701 5.8557e-19)
(42.1792 -0.197862 -6.16632e-19)
(42.3495 -0.0196167 3.5131e-19)
(42.4112 -0.0939695 -3.87762e-19)
(42.5084 0.0582402 4.47858e-19)
(42.6392 0.0421827 -4.97775e-19)
(42.7807 0.181463 -3.42324e-20)
(42.9796 0.236197 3.81146e-20)
(43.1814 0.357903 2.99607e-19)
(43.4091 0.470186 4.70644e-20)
(43.6482 0.61446 -4.21865e-19)
(43.8934 0.790519 -9.1689e-19)
(44.1459 0.990867 4.96835e-19)
(44.4038 1.21536 5.05589e-19)
(44.657 1.45634 1.96535e-18)
(44.9306 1.69469 -8.69122e-20)
(45.2292 1.94722 9.70132e-20)
(45.5375 2.23619 -8.41693e-19)
(45.8527 2.5679 -1.16834e-19)
(46.1774 2.93579 -3.96117e-19)
(46.4863 3.34466 0)
(46.8078 3.77953 0)
(47.1364 4.24221 0)
(47.4557 4.76026 0)
(47.7517 5.30499 -4.15935e-19)
(48.0337 5.80953 8.66392e-19)
(48.3047 6.31313 0)
(48.5786 6.82791 -7.67945e-19)
(48.8423 7.338 0)
(49.1011 7.84055 0)
(49.3315 8.35228 6.06583e-19)
(49.5127 8.85875 -3.16503e-19)
(49.7169 9.34804 6.83007e-19)
(50.0164 9.85174 -1.83902e-19)
(50.3558 10.3647 0)
(50.6438 10.8154 0)
(50.9309 11.2393 -1.74986e-19)
(51.2237 11.6731 5.46988e-19)
(51.4648 12.0908 0)
(51.7333 12.5202 2.32157e-19)
(52.0129 12.9262 -3.17132e-19)
(52.1879 13.2053 2.89566e-19)
(52.0289 13.409 -1.47928e-19)
(51.0982 13.3886 9.86459e-20)
(48.1069 12.7923 -2.19475e-19)
(40.5085 10.8607 1.56091e-19)
(25.2298 6.66163 -7.3974e-20)
(5.31475 1.41734 1.5203e-19)
(-1.99648 0.300954 -1.52082e-19)
(-2.35529 0.0334578 9.68146e-20)
(38.9309 -0.0619653 1.12455e-18)
(42.1844 -0.226328 2.37639e-20)
(42.3765 -0.0905783 0)
(42.4402 -0.182539 7.89634e-19)
(42.5496 -0.0726466 1.7806e-18)
(42.6858 -0.117399 -6.05041e-20)
(42.8506 -0.0191496 0)
(43.0584 0.00696335 0)
(43.2763 0.10623 8.2763e-20)
(43.5256 0.189784 -9.21966e-20)
(43.7902 0.299595 1.61812e-18)
(44.077 0.426119 -8.77857e-19)
(44.3845 0.581392 -1.01516e-18)
(44.7167 0.772601 1.09958e-18)
(45.0577 1.01639 -1.2451e-18)
(45.3943 1.31011 -1.69042e-19)
(45.7291 1.63453 1.67174e-18)
(46.0479 1.97821 2.47502e-18)
(46.3378 2.34465 0)
(46.6212 2.72914 -9.89354e-19)
(46.8939 3.12436 -1.08528e-18)
(47.1795 3.53079 0)
(47.4759 3.94846 1.29824e-18)
(47.7409 4.35114 0)
(48.0185 4.76499 0)
(48.3127 5.23593 -8.64077e-19)
(48.5996 5.71008 -4.48504e-19)
(48.882 6.19522 -9.59436e-19)
(49.1516 6.69368 0)
(49.4377 7.19736 0)
(49.7979 7.71287 -3.20421e-19)
(50.1828 8.23683 -3.17285e-19)
(50.5097 8.77728 -9.22608e-19)
(50.772 9.29319 2.87238e-20)
(51.0136 9.78724 3.24093e-20)
(51.2926 10.3229 6.72595e-19)
(51.5588 10.8552 -3.96376e-20)
(51.7777 11.3336 -7.02338e-19)
(52.0131 11.7758 -3.04165e-19)
(52.2539 12.1819 -1.62843e-19)
(52.4793 12.6126 -2.61681e-19)
(52.4203 12.8885 5.46453e-20)
(51.8565 12.9945 2.6328e-19)
(49.86 12.8082 9.79442e-20)
(44.2834 11.6229 2.26192e-19)
(32.2402 8.58191 -2.30909e-19)
(11.7438 3.24101 9.88864e-20)
(-0.0437108 0.862544 0)
(-3.33308 0.422309 0)
(-2.12823 0.17651 -2.15097e-20)
(38.7153 -0.131676 -3.31858e-18)
(42.162 -0.270425 -1.2125e-18)
(42.3843 -0.173025 1.36934e-18)
(42.4411 -0.291618 -4.80051e-20)
(42.5611 -0.209241 -3.41896e-18)
(42.6976 -0.271109 5.93808e-20)
(42.884 -0.208415 0)
(43.1003 -0.216436 2.32468e-18)
(43.3378 -0.15111 8.11359e-20)
(43.6071 -0.0967845 -4.25234e-22)
(43.8918 0.00333856 -3.30113e-18)
(44.1905 0.125315 1.67961e-18)
(44.4973 0.270124 9.25316e-22)
(44.8145 0.436046 -9.61024e-19)
(45.1471 0.608809 0)
(45.5069 0.811118 0)
(45.8885 1.05045 -1.29781e-18)
(46.2847 1.33627 -1.83281e-18)
(46.676 1.66471 0)
(47.0641 2.03853 9.86254e-19)
(47.4383 2.45603 1.08168e-18)
(47.8105 2.90582 2.88041e-19)
(48.1927 3.38609 -3.61549e-19)
(48.5444 3.91781 -1.02289e-18)
(48.8684 4.4481 -3.80808e-19)
(49.1797 4.95084 -3.98217e-19)
(49.4746 5.4764 1.33666e-18)
(49.7619 5.98502 9.56416e-19)
(50.0349 6.48893 -9.79496e-19)
(50.3055 6.98968 1.03496e-18)
(50.5542 7.48633 0)
(50.7451 7.98395 0)
(50.9538 8.46429 4.67745e-20)
(51.2556 8.98123 6.33206e-19)
(51.5831 9.53002 -5.85391e-19)
(51.8604 10.0214 -8.65863e-19)
(52.1172 10.4919 3.19673e-19)
(52.3652 10.9543 5.48358e-19)
(52.5822 11.3891 5.62956e-19)
(52.7862 11.8639 2.39661e-19)
(52.854 12.245 -4.78724e-20)
(52.5338 12.4476 -2.41312e-19)
(51.0999 12.4639 0)
(46.9983 11.8189 -9.69129e-20)
(37.3786 9.62132 -8.99914e-20)
(19.8077 5.27082 -8.5412e-20)
(2.86724 1.46937 -2.64548e-19)
(-2.88116 0.798849 1.04069e-19)
(-3.72129 0.494292 0)
(-1.8332 0.246651 0)
(38.4788 -0.114656 3.89626e-20)
(42.1072 -0.274425 2.45014e-18)
(42.3184 -0.229337 -1.40968e-18)
(42.3936 -0.361014 2.99336e-18)
(42.5121 -0.330571 1.79706e-18)
(42.6537 -0.419354 -6.83402e-23)
(42.8537 -0.395425 -6.48141e-20)
(43.0747 -0.434105 -2.17637e-18)
(43.3229 -0.407234 -1.59834e-19)
(43.605 -0.404769 -1.76431e-19)
(43.9225 -0.367373 1.58315e-18)
(44.2766 -0.305563 2.17692e-19)
(44.6621 -0.198933 1.90325e-18)
(45.0646 -0.0377152 2.10153e-18)
(45.461 0.172209 -2.90686e-19)
(45.8606 0.420626 3.24248e-19)
(46.2592 0.697916 0)
(46.6512 1.00599 1.54498e-18)
(47.0225 1.35187 0)
(47.379 1.71733 0)
(47.7223 2.1094 0)
(48.0626 2.5245 5.56055e-19)
(48.406 2.93268 -1.86741e-18)
(48.7288 3.35864 1.35574e-18)
(49.05 3.81852 0)
(49.38 4.30047 3.8282e-19)
(49.69 4.78489 1.22736e-18)
(49.9904 5.27519 1.76966e-18)
(50.2726 5.77108 1.43677e-18)
(50.5748 6.26713 -1.04181e-18)
(50.938 6.78291 1.04898e-18)
(51.3179 7.30732 -5.64737e-19)
(51.6619 7.84794 -1.08159e-18)
(51.9608 8.37494 0)
(52.2355 8.86992 -4.83941e-19)
(52.5243 9.42931 1.08105e-18)
(52.7811 9.99093 -7.44548e-20)
(52.9838 10.5219 -5.42424e-19)
(53.1565 11.042 -2.58517e-19)
(53.3083 11.5171 0)
(53.1738 11.8454 -1.71345e-19)
(52.079 11.992 1.46235e-19)
(49.0234 11.7376 -2.89675e-19)
(41.4425 10.2813 0)
(26.4014 6.84074 2.7765e-19)
(6.2959 2.2827 -7.96379e-20)
(-1.90996 1.12095 8.64099e-20)
(-4.13891 0.7266 9.19031e-20)
(-3.6564 0.552745 -1.85597e-19)
(-1.43792 0.214429 9.25169e-23)
(38.1932 -0.194151 2.15841e-18)
(42.0201 -0.317545 -2.37334e-18)
(42.2484 -0.293894 2.64487e-18)
(42.3181 -0.445796 -5.93219e-18)
(42.4364 -0.425433 3.38123e-18)
(42.5786 -0.544427 -2.29205e-19)
(42.7735 -0.55739 2.15288e-18)
(43.0007 -0.636513 0)
(43.2667 -0.646658 2.49441e-18)
(43.551 -0.659883 -2.93709e-18)
(43.8669 -0.639948 1.30813e-21)
(44.2053 -0.608265 2.13531e-19)
(44.5722 -0.554151 -1.89688e-18)
(44.9762 -0.482664 -3.41921e-20)
(45.4077 -0.371047 -1.98502e-18)
(45.8629 -0.211812 -3.16789e-19)
(46.3391 -0.00315741 0)