/*--------------------------------*- C++ -*----------------------------------*\
| =========                 |                                                 |
| \\      /  F ield         | OpenFOAM: The Open Source CFD Toolbox           |
|  \\    /   O peration     | Version:  v1912                                 |
|   \\  /    A nd           | Website:  www.openfoam.com                      |
|    \\/     M anipulation  |                                                 |
\*---------------------------------------------------------------------------*/
FoamFile
{
    version     2.0;
    format      ascii;
    class       volScalarField;
    location    "0.13";
    object      p;
}
// * * * * * * * * * * * * * * * * * * * * * * * * * * * * * * * * * * * * * //

dimensions      [0 2 -2 0 0 0 0];


internalField   nonuniform List<scalar> 
6600
(
61.0913
56.3243
53.8939
52.4218
51.6202
51.2627
51.2287
51.5485
52.2651
53.2923
54.6122
56.2757
58.2693
60.655
63.4753
66.6683
70.2378
74.211
78.5615
83.2769
88.341
93.7444
99.4461
105.399
111.503
117.661
124
130.374
136.54
142.345
147.748
152.582
156.596
159.588
161.275
161.277
159.249
154.828
147.576
137.046
122.742
104.045
80.4044
51.0648
15.3106
-27.6812
-78.0957
-136.734
-205.22
-275.95
57.7713
52.6935
50.8308
49.0766
47.9382
47.29
46.9596
46.9792
47.3367
48.0374
49.0048
50.2889
51.9521
54.0719
56.5161
59.3407
62.4649
65.9409
69.7509
73.8641
78.2775
82.9645
87.8942
93.0184
98.2953
103.45
108.413
113.384
118.274
122.692
126.441
129.47
131.531
132.414
131.794
129.331
124.654
117.373
107.074
93.2929
75.4901
53.0429
25.3884
-8.15
-48.2583
-95.7677
-150.846
-213.628
-284.727
-356.054
53.1199
47.735
46.6651
44.66
43.37
42.5513
42.0159
41.8131
41.9518
42.3735
43.1021
44.1625
45.3787
47.2351
49.3919
51.8
54.5019
57.5271
60.8244
64.3858
68.1654
72.1503
76.3009
80.5412
84.8585
89.1192
93.0462
96.6551
99.9425
102.739
104.829
105.982
105.944
104.513
101.424
96.2856
88.74
78.4294
64.9142
47.7206
26.3277
0.149021
-31.3592
-68.7685
-112.671
-163.828
-222.416
-287.704
-358.576
-426.423
47.6631
41.8915
41.4233
39.1917
37.8544
36.8355
36.101
35.727
35.6852
35.961
36.5073
37.3776
38.5539
39.8439
41.5799
43.635
45.9452
48.4995
51.2943
54.2729
57.425
60.6871
64.0342
67.3801
70.7058
73.9012
76.7008
79.011
80.8152
81.9386
82.1544
81.2936
79.1129
75.3218
69.6596
61.7896
51.3453
37.9542
21.217
0.683921
-24.1412
-53.754
-88.6063
-129.151
-175.872
-229.441
-289.917
-355.735
-424.49
-486.51
41.3999
35.3351
35.1088
32.5648
31.2887
30.1788
29.297
28.7505
28.52
28.5639
28.9069
29.5113
30.4997
31.619
32.867
34.4318
36.2767
38.3436
40.5553
42.9234
45.3849
47.8681
50.3512
52.7311
54.9318
56.918
58.5265
59.5424
59.822
59.2699
57.7124
54.8693
50.5136
44.4065
36.2514
25.7178
12.4771
-3.80542
-23.5158
-47.0506
-74.7965
-107.151
-144.476
-187.118
-235.418
-289.843
-350.394
-415.357
-480.63
-534.951
34.3753
27.9252
27.7659
24.8981
23.6177
22.4235
21.4258
20.7055
20.2674
20.1163
20.2231
20.5415
21.047
21.798
22.7447
23.835
25.1181
26.5624
28.1269
29.7841
31.4677
33.1161
34.6732
36.0482
37.1554
37.8942
38.1353
37.7829
36.6537
34.4793
31.082
26.325
19.9438
11.6385
1.15322
-11.7932
-27.4983
-46.2855
-68.4614
-94.3347
-124.227
-158.419
-197.149
-240.656
-289.201
-343.094
-402.257
-464.882
-525.234
-570.319
26.4592
19.8311
19.4569
16.2989
14.9277
13.5654
12.4493
11.5626
10.8836
10.4535
10.2468
10.1779
10.3334
10.659
11.0421
11.5653
12.2148
12.9367
13.7712
14.6183
15.4499
16.1834
16.7552
17.0723
17.0377
16.5645
15.4891
13.6677
10.9813
7.27649
2.3037
-4.23885
-12.5365
-22.7932
-35.2756
-50.2415
-67.948
-88.6317
-112.558
-139.975
-171.074
-206.039
-245.024
-288.184
-335.736
-387.987
-444.524
-503.388
-557.961
-592.739
17.3702
10.8138
10.1431
6.71747
5.23876
3.67793
2.33952
1.2522
0.320954
-0.450992
-1.09899
-1.60334
-2.04213
-2.28655
-2.40279
-2.50494
-2.61405
-2.64068
-2.67441
-2.71585
-2.82995
-3.06641
-3.52347
-4.29007
-5.43864
-7.08915
-9.4167
-12.5495
-16.6367
-21.9031
-28.5111
-36.6071
-46.4665
-58.3415
-72.4152
-88.8832
-107.949
-129.839
-154.729
-182.77
-214.116
-248.867
-287.07
-328.796
-374.219
-423.731
-477.1
-531.403
-579.28
-604.037
6.84255
0.619156
-0.201427
-3.8026
-5.40144
-7.22088
-8.79882
-10.2135
-11.5049
-12.6398
-13.8021
-14.8387
-15.7565
-16.7469
-17.645
-18.5453
-19.3833
-20.2594
-21.1697
-22.1679
-23.2595
-24.5195
-26.0279
-27.872
-30.1607
-32.9899
-36.4882
-40.851
-46.2318
-52.7527
-60.6113
-70.0506
-81.2084
-94.2495
-109.375
-126.759
-146.568
-168.916
-193.949
-221.793
-252.5
-286.093
-322.587
-362.017
-404.492
-450.288
-499.718
-549.295
-591.063
-608.074
-5.05973
-10.6241
-11.5308
-15.0885
-16.851
-18.983
-20.9236
-22.7036
-24.372
-26.1276
-27.7961
-29.5596
-31.3788
-33.0247
-34.6962
-36.3961
-38.1264
-39.8941
-41.7519
-43.6967
-45.7985
-48.091
-50.6219
-53.4893
-56.7829
-60.6233
-65.1822
-70.5943
-77.0097
-84.6281
-93.5661
-103.915
-115.877
-129.633
-145.312
-163.024
-182.878
-205.004
-229.475
-256.325
-285.602
-317.306
-351.373
-387.751
-426.546
-468.273
-512.52
-556.818
-594.051
-607.541
-18.1353
-22.8849
-23.8855
-27.2021
-28.989
-31.4752
-33.7799
-36.1095
-38.4282
-40.6991
-43.1437
-45.4744
-47.9645
-50.6919
-53.3295
-55.9288
-58.6076
-61.3374
-64.1427
-67.0824
-70.1832
-73.4523
-76.9558
-80.7917
-85.0752
-89.8955
-95.342
-101.565
-108.746
-117.008
-126.506
-137.409
-149.792
-163.753
-179.41
-196.877
-216.243
-237.523
-260.763
-286.012
-313.246
-342.402
-373.421
-406.222
-440.699
-477.568
-515.519
-552.543
-582.702
-595.845
-31.7798
-35.8641
-36.9089
-39.9973
-41.8965
-44.694
-47.4244
-50.1519
-53.1415
-56.2588
-59.4414
-62.9136
-66.2414
-69.635
-73.2366
-76.9521
-80.6702
-84.4418
-88.2825
-92.214
-96.2558
-100.465
-104.881
-109.537
-114.538
-120.037
-126.173
-133.027
-140.668
-149.292
-159.05
-170.002
-182.273
-195.973
-211.173
-227.911
-246.21
-266.132
-287.676
-310.789
-335.441
-361.587
-389.082
-417.688
-447.691
-478.593
-508.796
-535.145
-552.182
-562.844
-45.547
-49.1261
-50.1389
-53.2138
-55.3062
-58.4185
-61.6573
-65.1725
-68.7021
-72.62
-76.6134
-80.7508
-85.3064
-89.8982
-94.5276
-99.1615
-104.004
-108.883
-113.796
-118.72
-123.717
-128.819
-134.041
-139.443
-145.125
-151.168
-157.654
-164.716
-172.513
-181.109
-190.615
-201.216
-212.991
-225.985
-240.234
-255.79
-272.685
-290.862
-310.274
-330.907
-352.68
-375.436
-398.968
-423.198
-447.939
-472.036
-493.827
-509.687
-515.126
-520.288
-59.4054
-62.3141
-63.2457
-66.4744
-68.9531
-72.4338
-76.0178
-80.1569
-84.6847
-89.4165
-94.5596
-99.8037
-105.172
-110.775
-116.598
-122.561
-128.512
-134.512
-140.473
-146.437
-152.379
-158.295
-164.228
-170.213
-176.283
-182.568
-189.216
-196.285
-203.825
-212.032
-221.048
-230.91
-241.726
-253.599
-266.581
-280.657
-295.765
-311.896
-329.014
-346.977
-365.636
-384.841
-404.349
-424.316
-443.601
-460.962
-475.032
-484.057
-489.156
-490.7
-73.0492
-75.1763
-76.1768
-79.5059
-82.2654
-86.3449
-90.612
-95.1908
-100.561
-106.273
-112.238
-118.702
-125.43
-132.355
-139.311
-146.411
-153.654
-160.847
-168.001
-175.056
-181.949
-188.697
-195.332
-201.846
-208.271
-214.669
-221.091
-227.69
-234.692
-242.148
-250.143
-258.877
-268.46
-278.936
-290.315
-302.597
-315.797
-329.812
-344.494
-359.758
-375.484
-391.386
-407.332
-422.931
-437.495
-449.951
-458.875
-463.175
-468.446
-469.273
-85.3441
-86.7638
-88.0856
-91.6312
-94.8037
-99.3589
-104.314
-109.94
-116
-122.8
-130.138
-137.682
-145.534
-153.712
-162.236
-170.727
-179.239
-187.736
-196.161
-204.361
-212.292
-219.927
-227.191
-234.093
-240.654
-246.943
-253.082
-259.147
-265.195
-271.47
-278.205
-285.476
-293.41
-302.13
-311.708
-322.147
-333.317
-345.13
-357.537
-370.395
-383.448
-396.448
-409.266
-421.539
-432.511
-440.986
-446.04
-449.866
-451.765
-453.191
-95.966
-96.7227
-98.5122
-102.295
-105.984
-111.297
-116.902
-123.433
-130.592
-138.236
-146.648
-155.718
-165.183
-174.885
-184.655
-194.697
-204.791
-214.766
-224.575
-234.076
-243.191
-251.798
-259.814
-267.226
-274.016
-280.174
-285.744
-290.837
-295.715
-300.549
-305.496
-310.855
-316.839
-323.594
-331.176
-339.553
-348.728
-358.615
-369.018
-379.805
-390.706
-401.286
-411.466
-420.954
-429.055
-434.772
-437.662
-440.322
-441.534
-442.505
-104.671
-105.337
-107.296
-111.278
-115.377
-121.362
-127.8
-135.285
-143.651
-152.794
-162.336
-172.504
-183.351
-194.786
-206.56
-218.276
-229.989
-241.66
-253.071
-264.103
-274.568
-284.321
-293.236
-301.196
-308.105
-313.995
-319.018
-323.274
-326.782
-329.784
-332.694
-335.789
-339.389
-343.736
-349.006
-355.326
-362.593
-370.639
-379.427
-388.793
-397.845
-406.275
-414.241
-421.226
-426.529
-429.749
-432.815
-433.83
-434.855
-435.314
-110.339
-111.409
-113.683
-118.294
-122.724
-129.545
-136.751
-145.063
-154.407
-164.722
-175.875
-187.742
-200.209
-213.139
-226.57
-240.454
-254.289
-267.92
-281.195
-293.992
-306.117
-317.322
-327.426
-336.251
-343.669
-349.64
-354.133
-357.168
-359.028
-360.057
-360.505
-360.836
-361.502
-362.999
-365.686
-369.622
-374.842
-381.42
-389.253
-397.242
-404.618
-411.785
-417.926
-422.128
-424.31
-426.468
-427.993
-429.203
-430.183
-430.446
-112.365
-114.277
-117.344
-122.525
-127.551
-135.251
-143.129
-152.487
-163.005
-174.466
-186.91
-200.287
-214.513
-229.528
-245.09
-260.915
-276.974
-292.983
-308.599
-323.616
-337.775
-350.817
-362.477
-372.514
-380.686
-386.785
-390.887
-393.13
-393.509
-392.262
-389.889
-386.932
-384.127
-382.104
-381.363
-382.439
-385.591
-390.905
-397.525
-404.358
-411.495
-417.859
-421.92
-423.512
-423.726
-424.049
-425.064
-426.352
-427.359
-427.683
-111.771
-114.725
-118.296
-124.012
-129.859
-138.203
-146.635
-157.141
-168.585
-181.238
-195.169
-210.206
-226.15
-242.95
-260.701
-279.074
-297.66
-316.296
-334.664
-352.351
-369.021
-384.42
-398.183
-409.981
-419.536
-426.569
-430.827
-432.266
-431.021
-427.532
-422.096
-415.361
-408.132
-401.456
-396.495
-393.919
-393.994
-397.325
-403.054
-410.551
-418.236
-423.662
-426.004
-425.939
-425.299
-424.539
-424.718
-425.378
-425.985
-426.379
-108.854
-113.143
-117.161
-123.032
-129.649
-138.461
-147.501
-158.971
-171.359
-184.974
-200.117
-216.619
-234.513
-253.51
-273.434
-294.206
-315.602
-337.255
-358.755
-379.668
-399.54
-417.951
-434.465
-448.703
-460.215
-468.591
-473.492
-474.858
-472.753
-467.118
-458.37
-447.243
-434.84
-422.547
-411.634
-403.553
-399.053
-400.065
-405.817
-414.543
-422.995
-428.397
-430.336
-430.173
-428.621
-427.063
-425.7
-424.737
-424.317
-424.438
-102.922
-108.473
-113.652
-119.923
-127.254
-136.109
-145.772
-157.508
-170.661
-185.555
-201.88
-219.709
-239.14
-260.101
-282.432
-305.869
-330.223
-355.14
-380.161
-404.831
-428.559
-450.755
-470.84
-488.257
-502.623
-513.423
-520.093
-522.215
-519.581
-512.114
-500.271
-484.726
-466.348
-446.518
-427.55
-412.006
-401.262
-397.756
-402.312
-413.047
-423.901
-430.666
-433.778
-433.484
-431.215
-428.184
-425.159
-422.69
-421.324
-420.906
-95.222
-101.303
-107.469
-114.104
-121.997
-131.277
-141.67
-153.69
-167.075
-182.585
-199.923
-219.103
-240.076
-262.891
-287.348
-313.468
-340.928
-369.306
-398.198
-427.082
-455.275
-482.059
-506.673
-528.415
-546.677
-560.757
-569.933
-573.736
-571.816
-563.752
-549.457
-529.314
-504.319
-476.323
-447.475
-420.539
-398.719
-387.379
-390.368
-403.291
-418.391
-427.754
-432.009
-432.807
-430.353
-426.421
-422.499
-419.033
-416.774
-415.488
-87.3272
-93.5099
-99.6915
-106.711
-114.731
-124.115
-134.737
-147.073
-160.864
-176.686
-194.545
-214.63
-236.954
-261.356
-288.024
-316.725
-347.155
-379.106
-412.145
-445.632
-478.842
-510.944
-541.058
-568.216
-591.478
-610.107
-623.365
-630.386
-630.359
-622.649
-606.925
-583.234
-552.376
-515.368
-473.887
-431.882
-395.133
-372.962
-369.824
-383.166
-402.664
-418.464
-425.865
-429.208
-429.196
-426.562
-422.395
-418.044
-414.905
-412.806
-78.3864
-85.5431
-91.1783
-98.4134
-106.235
-115.314
-125.84
-138.072
-152.035
-168.071
-186.274
-206.759
-229.909
-255.824
-284.251
-315.19
-348.569
-384.088
-421.335
-459.696
-498.409
-536.53
-572.985
-606.637
-636.347
-661.009
-679.554
-690.825
-694.2
-689.017
-674.092
-648.508
-612.086
-566.147
-512.95
-454.872
-399.072
-358.127
-344.431
-354.946
-379.334
-405.173
-424.542
-434.01
-436.249
-433.685
-428.869
-423.43
-419.082
-416.295
-70.9518
-77.0534
-83.3048
-90.0948
-97.131
-105.597
-115.838
-127.509
-141.127
-156.963
-175.032
-195.928
-219.582
-246.139
-275.991
-308.928
-344.944
-383.869
-425.276
-468.609
-513.092
-557.696
-601.306
-642.589
-680.116
-712.358
-737.841
-755.524
-764.401
-763.195
-750.692
-725.533
-687.002
-635.471
-570.298
-492.703
-416.81
-361.374
-334.674
-335.987
-359.85
-393.701
-423.275
-438.49
-444.337
-443.103
-437.608
-431.625
-427.277
-425.265
-67.4792
-71.0154
-76.0445
-81.7539
-88.2645
-95.9971
-105.174
-116.221
-129.221
-144.446
-162.121
-182.678
-206.291
-233.359
-263.89
-298.168
-336.337
-378.249
-423.686
-472.017
-522.437
-573.913
-625.256
-675.066
-721.708
-763.167
-797.466
-823.077
-838.882
-843.851
-836.405
-815.671
-778.87
-722.954
-645.895
-554.867
-464.443
-395.435
-352.429
-346.041
-365.173
-394.086
-421.265
-436.991
-443.135
-442.799
-438.796
-434.314
-431.523
-430.778
-68.4789
-62.6025
-69.2635
-74.0273
-79.4399
-86.6794
-94.9882
-105.079
-116.925
-131.161
-148.128
-167.973
-191.096
-218.037
-248.883
-283.799
-323.312
-367.487
-416.553
-469.736
-526.104
-584.646
-644.237
-703.404
-760.082
-812.1
-857.164
-892.807
-918.149
-931.938
-931.734
-916.126
-885.023
-822.748
-740.256
-646.471
-554.924
-474.6
-425.613
-403.242
-404.13
-416.878
-430.582
-438.103
-439.934
-437.64
-434.178
-431.726
-431.32
-432.139
-94.4834
-57.3941
-63.9523
-66.055
-71.0687
-78.0614
-85.452
-94.7302
-105.726
-118.568
-134.36
-153.149
-175.727
-202.105
-232.606
-267.705
-307.983
-353.57
-405.394
-462.749
-524.634
-590.249
-658.371
-727.385
-794.118
-856.818
-914.231
-962.485
-999.141
-1023.14
-1032.45
-1019.73
-992.37
-935.033
-853.258
-764.349
-676.476
-603.536
-548.057
-508.45
-483.443
-469.759
-461.075
-453.932
-445.421
-436.769
-430.959
-429.143
-430.162
-431.91
59.0147
54.277
51.8579
50.4094
49.6351
49.2918
49.26
49.6035
50.3316
51.3707
52.7137
54.3906
56.4035
58.8136
61.6326
64.8434
68.4515
72.4681
76.8965
81.6921
86.8713
92.4121
98.2985
104.467
110.841
117.339
124.016
130.817
137.51
143.938
150.046
155.678
160.608
164.626
167.541
169.019
168.657
166.115
161.017
152.902
141.348
125.677
105.342
79.6677
48.0275
9.62335
-35.8783
-88.8865
-152.831
-217.984
55.6841
50.6286
48.7636
47.0318
45.9051
45.2645
44.9345
44.9649
45.3293
46.0633
47.0523
48.328
49.9861
52.1345
54.5731
57.4111
60.5738
64.0908
67.9648
72.16
76.6914
81.5084
86.6145
91.947
97.4541
103.04
108.488
113.86
119.156
124.128
128.553
132.338
135.298
137.194
137.785
136.715
133.595
128.092
119.81
108.246
93.0316
73.3499
48.7479
18.5345
-17.9288
-61.475
-112.298
-170.464
-238.064
-305.51
51.0158
45.64
44.5754
42.5675
41.2808
40.4716
39.9382
39.7403
39.8905
40.3256
41.0666
42.1196
43.3829
45.1739
47.349
49.7718
52.5183
55.5781
58.9405
62.5925
66.4906
70.6121
74.9312
79.3995
83.9354
88.4779
92.868
96.995
100.802
104.16
106.872
108.758
109.602
109.177
107.25
103.468
97.4075
88.747
77.1064
61.9649
42.8457
19.1393
-9.66108
-44.183
-85.0339
-133.001
-188.232
-250.099
-318.53
-384.063
45.5264
39.754
39.2906
37.0225
35.7236
34.7069
33.9672
33.597
33.5574
33.8231
34.3544
35.2061
36.3937
37.6917
39.4341
41.5184
43.8758
46.4804
49.3482
52.4192
55.6908
59.1012
62.6149
66.1904
69.7877
73.2734
76.3946
79.1316
81.4762
83.2461
84.1687
84.0614
82.7318
79.9409
75.4078
68.8015
59.7611
47.9284
32.8976
14.1844
-8.68699
-36.1783
-68.7659
-106.986
-151.382
-202.646
-260.854
-324.579
-392.234
-453.688
39.2098
33.136
32.9232
30.3307
29.1225
27.9836
27.0965
26.5466
26.3068
26.3371
26.6712
27.2782
28.2159
29.3545
30.6513
32.2469
34.1359
36.2679
38.5518
41.0224
43.6011
46.2428
48.9039
51.5026
53.9706
56.2714
58.2458
59.6583
60.4483
60.512
59.6504
57.6006
54.1107
48.9445
41.851
32.5186
20.5826
5.70143
-12.5011
-34.4675
-60.612
-91.3055
-126.935
-167.925
-214.691
-267.8
-327.21
-391.202
-456.944
-512.789
32.1369
25.6591
25.5346
22.64
21.3831
20.1661
19.1685
18.4369
17.992
17.8222
17.9118
18.2219
18.7692
19.5098
20.4755
21.6015
22.9275
24.4156
26.0732
27.8323
29.6354
31.4544
33.2081
34.8127
36.2238
37.3073
37.9163
37.9295
37.2241
35.6232
32.9301
28.9399
23.3884
16.0088
6.52368
-5.35738
-19.9189
-37.4807
-58.3992
-83.0333
-111.706
-144.716
-182.358
-224.942
-272.768
-326.242
-385.415
-448.469
-511.043
-559.758
24.148
17.499
17.1901
13.989
12.6352
11.2576
10.1443
9.24977
8.55601
8.10718
7.88361
7.81522
7.96671
8.31267
8.71917
9.27407
9.95305
10.7425
11.6554
12.6003
13.5578
14.4536
15.2179
15.7479
15.9616
15.8348
15.2285
13.9199
11.7198
8.46058
4.0079
-1.84252
-9.34854
-18.7766
-30.37
-44.3899
-61.1338
-80.857
-103.826
-130.332
-160.633
-194.952
-233.493
-276.474
-324.132
-376.81
-434.315
-494.911
-553.163
-593.269
15.0003
8.41003
7.83739
4.35717
2.8967
1.32817
-0.0177774
-1.11758
-2.0613
-2.84599
-3.52077
-4.02051
-4.46144
-4.72936
-4.82126
-4.8928
-4.94852
-4.91447
-4.87467
-4.80682
-4.7954
-4.87605
-5.12747
-5.64778
-6.5148
-7.87264
-9.86143
-12.5902
-16.1954
-20.9016
-26.9427
-34.4808
-43.7102
-54.8508
-68.1601
-83.886
-102.228
-123.408
-147.658
-175.191
-206.18
-240.777
-279.119
-321.353
-367.703
-418.548
-473.566
-530.602
-583.244
-613.921
4.48735
-1.82207
-2.5585
-6.20972
-7.78492
-9.61101
-11.2006
-12.6402
-13.9512
-15.1148
-16.2796
-17.3533
-18.2549
-19.232
-20.1848
-21.0341
-21.8142
-22.6412
-23.4572
-24.3554
-25.3288
-26.445
-27.7742
-29.4045
-31.4658
-33.998
-37.1271
-41.045
-45.9675
-52.0676
-59.4843
-68.3889
-78.9862
-91.484
-106.053
-122.878
-142.182
-164.129
-188.871
-216.563
-247.335
-281.286
-318.487
-359.035
-403.108
-451.121
-502.904
-555.443
-601.543
-623.06
-7.42924
-13.042
-13.929
-17.5215
-19.2637
-21.4171
-23.3824
-25.1758
-26.8732
-28.6594
-30.3442
-32.1151
-33.9675
-35.5747
-37.2338
-38.9539
-40.6716
-42.3703
-44.153
-46.013
-47.9903
-50.1378
-52.4933
-55.134
-58.172
-61.7929
-66.1501
-71.3173
-77.3656
-84.4895
-92.9248
-102.858
-114.429
-127.767
-143.051
-160.452
-180.082
-202.074
-226.559
-253.645
-283.403
-315.88
-351.106
-389.128
-430.102
-474.344
-521.842
-569.681
-610.164
-625.221
-20.5475
-25.3143
-26.3054
-29.6348
-31.4207
-33.9369
-36.2657
-38.6192
-40.9709
-43.2615
-45.7291
-48.1013
-50.5956
-53.3387
-55.9417
-58.5554
-61.2019
-63.9073
-66.6677
-69.528
-72.52
-75.6679
-79.04
-82.7286
-86.8145
-91.3655
-96.5305
-102.483
-109.405
-117.428
-126.641
-137.172
-149.217
-162.937
-178.423
-195.771
-215.114
-236.542
-260.123
-285.912
-313.951
-344.267
-376.855
-411.682
-448.754
-488.6
-530.629
-572.787
-608.373
-621.739
-34.2342
-38.2973
-39.3299
-42.4319
-44.3369
-47.1765
-49.9285
-52.6849
-55.7082
-58.8689
-62.0804
-65.5818
-68.9439
-72.3534
-75.9663
-79.6698
-83.3593
-87.1094
-90.8978
-94.7667
-98.7231
-102.825
-107.113
-111.626
-116.482
-121.811
-127.767
-134.444
-141.908
-150.3
-159.813
-170.597
-182.732
-196.313
-211.464
-228.285
-246.82
-267.117
-289.221
-313.16
-338.929
-366.493
-395.81
-426.827
-459.552
-494.099
-529.225
-562.886
-589.307
-602.651
-48.0678
-51.5398
-52.5553
-55.6455
-57.7398
-60.894
-64.1577
-67.7053
-71.2795
-75.2287
-79.2788
-83.4473
-88.039
-92.6881
-97.3121
-101.949
-106.78
-111.635
-116.505
-121.38
-126.314
-131.333
-136.457
-141.764
-147.346
-153.257
-159.584
-166.476
-174.122
-182.668
-192.165
-202.709
-214.453
-227.494
-241.889
-257.682
-274.93
-293.658
-313.869
-335.527
-358.581
-382.971
-408.562
-435.147
-463.227
-491.656
-518.622
-540.526
-552.642
-563.119
-61.9023
-64.664
-65.6139
-68.8425
-71.3293
-74.8471
-78.4662
-82.6496
-87.2315
-92.0059
-97.1967
-102.5
-107.897
-113.533
-119.394
-125.35
-131.326
-137.329
-143.271
-149.204
-155.105
-160.968
-166.835
-172.745
-178.757
-184.99
-191.566
-198.566
-206.074
-214.232
-223.23
-233.187
-244.166
-256.241
-269.468
-283.903
-299.547
-316.376
-334.352
-353.434
-373.543
-394.502
-416.052
-438.247
-460.711
-482.371
-501.542
-515.054
-519.552
-523.86
-75.3592
-77.4106
-78.4249
-81.7669
-84.5453
-88.6764
-92.9842
-97.6105
-103.041
-108.81
-114.834
-121.342
-128.132
-135.098
-142.094
-149.22
-156.487
-163.678
-170.835
-177.876
-184.744
-191.464
-198.055
-204.518
-210.91
-217.317
-223.804
-230.455
-237.453
-244.987
-253.144
-262.057
-271.857
-282.611
-294.378
-307.152
-320.913
-335.632
-351.256
-367.682
-384.765
-402.33
-420.215
-438.153
-455.444
-471.102
-483.499
-491.242
-497.83
-499.443
-87.499
-88.8838
-90.213
-93.7845
-96.9787
-101.584
-106.575
-112.268
-118.377
-125.235
-132.638
-140.25
-148.152
-156.389
-164.948
-173.511
-182.048
-190.569
-198.998
-207.201
-215.123
-222.754
-230.028
-236.94
-243.532
-249.857
-256.036
-262.208
-268.471
-274.945
-281.845
-289.368
-297.65
-306.795
-316.817
-327.742
-339.545
-352.136
-365.4
-379.239
-393.555
-408.125
-422.723
-436.914
-450.038
-461.319
-469.478
-473.521
-477.694
-479.582
-97.9048
-98.6597
-100.483
-104.287
-107.997
-113.362
-119.01
-125.602
-132.832
-140.553
-149.012
-158.146
-167.682
-177.438
-187.279
-197.35
-207.498
-217.534
-227.366
-236.88
-245.998
-254.613
-262.649
-270.076
-276.888
-283.135
-288.902
-294.237
-299.314
-304.44
-309.794
-315.567
-321.967
-329.136
-337.213
-346.184
-355.962
-366.457
-377.585
-389.237
-401.206
-413.14
-424.822
-436.039
-446.034
-453.656
-458.081
-462.562
-463.844
-465.688
-106.29
-106.99
-109.031
-113.048
-117.194
-123.238
-129.726
-137.266
-145.696
-154.905
-164.514
-174.739
-185.669
-197.149
-208.98
-220.758
-232.516
-244.231
-255.688
-266.75
-277.265
-287.047
-296.007
-304.043
-311.078
-317.108
-322.253
-326.696
-330.587
-334.052
-337.394
-340.98
-345.125
-350.089
-355.966
-362.817
-370.623
-379.268
-388.612
-398.504
-408.428
-418.017
-427.447
-436.213
-443.427
-448.238
-451.252
-453.455
-454.919
-455.975
-111.681
-112.813
-115.188
-119.823
-124.309
-131.199
-138.45
-146.832
-156.23
-166.592
-177.817
-189.743
-202.28
-215.289
-228.766
-242.69
-256.565
-270.253
-283.58
-296.429
-308.582
-319.843
-330.007
-338.904
-346.407
-352.5
-357.238
-360.652
-362.916
-364.435
-365.527
-366.553
-367.951
-370.115
-373.423
-378.015
-383.841
-390.794
-398.803
-407.268
-415.381
-423.361
-430.846
-437.121
-441.575
-444.209
-446.659
-447.761
-449.049
-449.585
-113.501
-115.471
-118.603
-123.827
-128.888
-136.685
-144.573
-154.004
-164.598
-176.104
-188.597
-202.029
-216.272
-231.354
-246.974
-262.846
-278.939
-294.986
-310.654
-325.723
-339.915
-353.017
-364.724
-374.836
-383.151
-389.501
-393.845
-396.352
-397.221
-396.632
-394.995
-392.885
-390.939
-389.827
-390.014
-391.839
-395.492
-401.073
-408.026
-415.134
-422.371
-429.353
-434.844
-438.343
-440.065
-441.704
-442.762
-443.98
-445.11
-445.519
-112.712
-115.704
-119.326
-125.064
-130.983
-139.382
-147.834
-158.404
-169.863
-182.552
-196.526
-211.627
-227.611
-244.434
-262.218
-280.609
-299.224
-317.872
-336.272
-354.012
-370.741
-386.15
-399.966
-411.835
-421.488
-428.679
-433.228
-435.109
-434.457
-431.644
-427.1
-421.423
-415.423
-409.968
-406.036
-404.37
-405.379
-409.234
-414.861
-421.91
-429.567
-435.71
-439.137
-440.054
-440.287
-440.35
-440.949
-441.918
-442.858
-443.308
-109.581
-113.935
-117.964
-123.885
-130.568
-139.331
-148.45
-159.959
-172.345
-186.003
-201.167
-217.673
-235.586
-254.592
-274.522
-295.291
-316.69
-338.317
-359.805
-380.712
-400.624
-419.084
-435.648
-449.929
-461.55
-470.132
-475.364
-477.133
-475.527
-470.64
-462.956
-453.186
-442.258
-431.486
-422.163
-415.503
-412.381
-413.408
-418.763
-427.339
-435.812
-441.392
-443.539
-443.419
-442.256
-441.45
-441.069
-441.098
-441.412
-441.854
-103.425
-109.08
-114.275
-120.576
-127.935
-136.789
-146.484
-158.21
-171.392
-186.295
-202.606
-220.425
-239.844
-260.782
-283.054
-306.465
-330.772
-355.627
-380.581
-405.174
-428.857
-451.054
-471.19
-488.695
-503.116
-514.01
-520.909
-523.417
-521.33
-514.763
-504.154
-490.099
-473.637
-456.076
-439.351
-425.674
-416.351
-413.47
-418.05
-427.943
-438.669
-445.42
-447.739
-447.452
-445.923
-443.733
-441.613
-440.095
-439.334
-439.313
-95.5018
-101.721
-107.923
-114.571
-122.485
-131.777
-142.155
-154.145
-167.51
-183.006
-200.316
-219.463
-240.39
-263.149
-287.529
-313.555
-340.892
-369.155
-397.924
-426.671
-454.73
-481.418
-506.002
-527.762
-546.058
-560.245
-569.632
-573.728
-572.265
-565.067
-552.004
-533.688
-511.036
-485.656
-459.965
-436.186
-417.212
-406.849
-408.602
-420.72
-435.864
-445.726
-449.315
-448.908
-447.009
-443.82
-440.252
-437.32
-435.584
-434.927
-87.3486
-93.7112
-99.9494
-106.99
-115.031
-124.415
-135.011
-147.313
-161.07
-176.843
-194.641
-214.634
-236.885
-261.192
-287.735
-316.275
-346.529
-378.285
-411.11
-444.377
-477.367
-509.261
-539.208
-566.28
-589.555
-608.226
-621.596
-628.765
-629.113
-622.172
-607.807
-586.06
-557.739
-524.158
-487.171
-449.658
-416.097
-395.082
-391.69
-403.063
-422.786
-439.421
-445.564
-446.536
-444.864
-441.755
-437.788
-433.925
-431.285
-429.674
-78.3036
-85.5601
-91.2706
-98.519
-106.371
-115.445
-125.947
-138.148
-152.05
-167.992
-186.075
-206.483
-229.502
-255.267
-283.513
-314.234
-347.356
-382.586
-419.504
-457.507
-495.848
-533.614
-569.777
-603.232
-632.836
-657.508
-676.197
-687.668
-691.267
-686.493
-672.538
-648.921
-615.528
-573.551
-524.857
-472.07
-421.045
-383.664
-368.716
-376.033
-399.163
-421.476
-436.914
-445.107
-446.696
-444.289
-440.035
-435.344
-431.873
-429.524
-70.8181
-76.9673
-83.2622
-90.0578
-97.1222
-105.581
-115.807
-127.436
-140.952
-156.687
-174.655
-195.396
-218.859
-245.236
-274.85
-307.5
-343.187
-381.717
-422.675
-465.512
-509.477
-553.562
-596.659
-637.521
-674.784
-706.967
-732.535
-750.337
-759.261
-758.144
-746.261
-722.836
-687.031
-639.169
-580.079
-510.472
-437.195
-380.664
-353.523
-353.656
-377.949
-409.985
-434.651
-449.841
-454.68
-453.027
-448.04
-442.347
-437.997
-435.385
-67.2631
-70.858
-75.9374
-81.6373
-88.1539
-95.8606
-105.011
-116.012
-128.933
-144.032
-161.564
-181.916
-205.297
-232.114
-262.399
-296.314
-334.079
-375.501
-420.353
-468.027
-517.731
-568.445
-619.025
-668.171
-714.338
-755.525
-789.809
-815.63
-831.495
-836.374
-828.78
-808.415
-774.861
-723.412
-652.623
-566.447
-480.476
-405.785
-360.732
-346.56
-368.44
-404.447
-434.159
-453.166
-459.834
-458.978
-454.058
-448.74
-445.158
-443.642
-68.229
-62.3198
-69.0875
-73.8375
-79.2722
-86.471
-94.7473
-104.753
-116.546
-130.669
-147.445
-167.082
-189.916
-216.521
-247.026
-281.598
-320.624
-364.24
-412.556
-464.914
-520.382
-577.918
-636.43
-694.62
-750.628
-802.069
-846.716
-882.508
-907.888
-921.391
-920.617
-904.82
-875.591
-821
-743.061
-649.207
-556.121
-472.528
-413.388
-390.178
-393.711
-414.507
-435.308
-449.875
-455.933
-455.06
-452.107
-449.029
-447.317
-447.192
-94.1059
-57.1137
-63.8429
-65.8575
-70.8781
-77.8109
-85.1662
-94.3363
-105.257
-117.965
-133.572
-152.122
-174.37
-200.373
-230.456
-265.139
-304.886
-349.874
-400.772
-457.191
-518.012
-582.316
-648.999
-716.842
-782.824
-844.576
-900.702
-948.649
-985.375
-1009.89
-1019.63
-1008.54
-979.898
-933.598
-853.145
-763.074
-664.646
-584.162
-523.902
-482.868
-462.668
-456.879
-459.03
-459.783
-456.969
-452.352
-448.168
-446.217
-446.414
-447.671
-76.5839
-44.8662
-50.3615
-57.8676
-64.0282
-70.2027
-76.777
-85.41
-95.9079
-107.816
-122.369
-140.058
-161.167
-185.983
-215.803
-251.236
-292.157
-338.952
-392.442
-453.152
-520.887
-594.321
-671.66
-750.504
-828.477
-903.214
-972.356
-1032.86
-1082.46
-1118.27
-1141.96
-1144.03
-1108.94
-1045.45
-966.755
-873.492
-784.844
-708.212
-643.951
-592.554
-554.67
-526.51
-504.126
-484.542
-467.282
-453.518
-445.709
-444.764
-446.442
-448.16
-59.7106
-48.5376
-49.9209
-54.2276
-59.264
-65.2071
-72.133
-80.7607
-90.7749
-102.947
-117.85
-136.22
-158.783
-185.79
-218.29
-257.005
-302.016
-354.39
-415
-484.242
-561.774
-645.492
-734.591
-826.653
-918.219
-1005.36
-1084.87
-1154.24
-1209.9
-1247.23
-1260.21
-1239.64
-1193.14
-1127.27
-1048.59
-962.61
-878.925
-803.397
-738.663
-682.606
-633.975
-591.632
-553.795
-519.829
-489.749
-465.854
-451.701
-447.036
-449.255
-451.482
-45.9947
-48.236
-50.1507
-52.6605
-56.7339
-62.6355
-70.0638
-78.5638
-88.9413
-101.969
-118.565
-139.595
-165.617
-196.929
-233.694
-277.587
-330.229
-392.518
-464.079
-544.309
-633.368
-730.924
-835.046
-941.745
-1044.76
-1140.96
-1226.51
-1300.17
-1352.64
-1376.16
-1367.92
-1336.24
-1283.67
-1216.22
-1137.62
-1057.42
-978.146
-902.367
-830.974
-765.553
-705.749
-651.291
-602.091
-558.003
-519.509
-487.89
-465.653
-454.664
-454.932
-458.27
-38.2729
-42.6743
-46.1474
-49.4132
-53.7879
-59.6262
-67.3342
-76.1744
-87.3998
-101.745
-120.434
-144.074
-173.102
-208.581
-251.38
-303.262
-365.305
-437.717
-521.165
-616.553
-723.804
-840.661
-961.819
-1080.18
-1192.06
-1295.81
-1389.65
-1459.9
-1497.62
-1503.89
-1484.59
-1443.32
-1385.08
-1313.93
-1235.69
-1153.53
-1070.13
-988.152
-909.743
-835.318
-766.251
-702.592
-645.007
-594.034
-550.091
-513.791
-486.085
-468.827
-462.956
-469.541
-31.9782
-35.9126
-39.6318
-43.5894
-48.1766
-54.0453
-61.6352
-71.0254
-83.2537
-99.0632
-119.291
-144.955
-177.393
-218.036
-267.747
-327.268
-398.33
-483.299
-584.075
-700.808
-830.113
-966.517
-1102.84
-1234.03
-1357.36
-1471.14
-1562.28
-1615.83
-1637.59
-1631.26
-1601.13
-1550.26
-1484.8
-1408.56
-1324.75
-1236.44
-1146.97
-1058.06
-971.979
-890.005
-813.109
-742.518
-678.98
-623.29
-575.969
-537.177
-506.974
-486.051
-477.309
-485.01
-25.8273
-28.8322
-31.7525
-35.1512
-39.0848
-44.9144
-52.5814
-62.511
-75.2237
-91.7646
-113.007
-140.866
-177.375
-223.472
-279.33
-346.855
-429.886
-532.574
-656.223
-797.083
-948.978
-1104.13
-1257.2
-1404.59
-1540.1
-1650.31
-1721.08
-1759.02
-1765.73
-1746.19
-1704.08
-1644.26
-1570.06
-1485.99
-1394.53
-1299.33
-1202.88
-1107.37
-1014.56
-926.079
-843.405
-767.652
-700.056
-641.478
-592.316
-552.616
-522.18
-501.347
-492.346
-494.08
-18.3212
-19.9932
-21.8849
-24.6191
-27.9956
-33.0374
-40.143
-49.7002
-61.7486
-78.4832
-101.037
-131.714
-171.881
-222.198
-285.1
-364.348
-464.584
-589.321
-737.698
-903.89
-1078.9
-1255.01
-1426.65
-1585.79
-1714.92
-1804.51
-1858.47
-1880.56
-1872.78
-1839.45
-1786.05
-1715.44
-1631.98
-1539.25
-1440.45
-1338.29
-1235.51
-1133.91
-1035.47
-941.859
-854.593
-775.254
-704.952