/*--------------------------------*- C++ -*----------------------------------*\
| =========                 |                                                 |
| \\      /  F ield         | OpenFOAM: The Open Source CFD Toolbox           |
|  \\    /   O peration     | Version:  v1912                                 |
|   \\  /    A nd           | Website:  www.openfoam.com                      |
|    \\/     M anipulation  |                                                 |
\*---------------------------------------------------------------------------*/
FoamFile
{
    version     2.0;
    format      ascii;
    class       surfaceScalarField;
    location    "0.13";
    object      phi;
}
// * * * * * * * * * * * * * * * * * * * * * * * * * * * * * * * * * * * * * //

dimensions      [0 3 -1 0 0 0 0];
oriented        oriented;


internalField   nonuniform List<scalar> 
13060
(
0.00555815
0.988668
-0.994226
0.00713223
0.946133
-0.947707
0.00795372
0.900805
-0.901627
0.00860058
0.857456
-0.858103
0.00913575
0.817024
-0.817559
0.00949941
0.779305
-0.779669
0.00972084
0.742959
-0.74318
0.00995576
0.708286
-0.70852
0.00997534
0.675172
-0.675192
0.0100498
0.643435
-0.643509
0.00983836
0.613159
-0.612947
0.00972277
0.584096
-0.58398
0.00959593
0.556275
-0.556148
0.00943522
0.529946
-0.529785
0.00923077
0.504538
-0.504333
0.00907292
0.480144
-0.479986
0.00897362
0.456722
-0.456623
0.0089117
0.43437
-0.434308
0.00886998
0.412962
-0.41292
0.0088129
0.392551
-0.392494
0.0087367
0.373076
-0.372999
0.0086382
0.354404
-0.354305
0.00852691
0.336675
-0.336563
0.00841251
0.319723
-0.319608
0.00845967
0.303418
-0.303465
0.00852264
0.287902
-0.287965
0.00839957
0.273342
-0.273218
0.00806432
0.259545
-0.25921
0.00768309
0.246247
-0.245865
0.00735583
0.23361
-0.233283
0.00699669
0.221768
-0.221408
0.00655077
0.210551
-0.210105
0.00604862
0.199859
-0.199357
0.00552549
0.189758
-0.189234
0.00495824
0.180255
-0.179687
0.00432652
0.171325
-0.170694
0.0036894
0.162925
-0.162288
0.003041
0.155048
-0.1544
0.0023729
0.14766
-0.146992
0.00169913
0.140738
-0.140065
0.00101937
0.134243
-0.133563
0.000349966
0.128168
-0.127499
-0.000330755
0.122472
-0.121792
-0.00100459
0.11718
-0.116506
-0.0016313
0.112205
-0.111579
-0.0021562
0.107649
-0.107124
-0.00275553
0.103008
-0.102409
-0.0030084
0.0993048
-0.0990519
-0.00230064
0.0905908
-0.0912985
0.0612783
-0.0635789
0.00592311
0.982744
0.0067347
0.945321
0.00700528
0.900535
0.00669073
0.85777
0.00619793
0.817517
0.00578965
0.779713
0.00543364
0.743315
0.00502487
0.708694
0.0047432
0.675454
0.00451252
0.643665
0.00446963
0.613202
0.00454819
0.584017
0.00441799
0.556405
0.00454511
0.529819
0.00464876
0.504434
0.00472656
0.480066
0.00471596
0.456733
0.00465116
0.434435
0.00452118
0.413092
0.00437455
0.392698
0.0042257
0.373224
0.00404436
0.354585
0.00384116
0.336878
0.00356794
0.319996
0.00310423
0.303882
0.00251167
0.288495
0.00208955
0.273764
0.00190663
0.259728
0.00170266
0.246451
0.0013051
0.234007
0.000903973
0.222169
0.000573811
0.210881
0.000216298
0.200216
-0.000181933
0.190156
-0.000613686
0.180686
-0.00103761
0.171749
-0.00149095
0.163379
-0.00195423
0.155512
-0.00241596
0.148121
-0.00288418
0.141207
-0.00332903
0.134688
-0.00372697
0.128566
-0.00406909
0.122815
-0.00434253
0.117454
-0.00455421
0.112417
-0.00466694
0.107761
-0.00474338
0.103085
-0.00424387
0.0988053
-0.00293533
0.0892822
0.0583429
0.00522197
0.977522
0.00554812
0.944995
0.00528276
0.9008
0.00444832
0.858605
0.00386795
0.818097
0.00340989
0.780171
0.00292563
0.743799
0.00244753
0.709172
0.00182969
0.676071
0.00132068
0.644174
0.000612037
0.61391
-0.000143481
0.584773
-0.000609041
0.556871
-0.00107915
0.530289
-0.00158737
0.504942
-0.00203247
0.480511
-0.00238102
0.457081
-0.00268546
0.434739
-0.00294379
0.41335
-0.00319605
0.39295
-0.00344238
0.373471
-0.00368767
0.35483
-0.00390548
0.337096
-0.00406962
0.32016
-0.00404311
0.303855
-0.00391127
0.288363
-0.00406621
0.273919
-0.00447619
0.260138
-0.00478099
0.246756
-0.00491548
0.234142
-0.00512054
0.222374
-0.00541432
0.211174
-0.00570198
0.200504
-0.00598116
0.190435
-0.00626494
0.18097
-0.00656857
0.172053
-0.00683697
0.163647
-0.00708199
0.155757
-0.00730825
0.148348
-0.00748808
0.141386
-0.00762624
0.134826
-0.00771704
0.128657
-0.00773245
0.12283
-0.00764733
0.117369
-0.00745351
0.112223
-0.00714158
0.107449
-0.00676559
0.102709
-0.00569731
0.097737
-0.00366711
0.087252
0.0546758
0.00403008
0.973492
0.00390511
0.94512
0.00303808
0.901667
0.00182017
0.859823
0.000491476
0.819426
-0.000728441
0.781391
-0.00176461
0.744835
-0.0027105
0.710118
-0.00337518
0.676736
-0.00414774
0.644947
-0.00460443
0.614367
-0.00501748
0.585186
-0.00548194
0.557335
-0.00580434
0.530611
-0.00599563
0.505133
-0.00623824
0.480754
-0.00652602
0.457369
-0.00686033
0.435073
-0.00720993
0.4137
-0.00754426
0.393284
-0.00785516
0.373782
-0.00816524
0.355141
-0.00847743
0.337408
-0.00882067
0.320503
-0.00935604
0.304391
-0.00997249
0.288979
-0.0103202
0.274266
-0.0104446
0.260262
-0.0106686
0.246979
-0.0110256
0.234499
-0.0112851
0.222633
-0.0114465
0.211336
-0.0116164
0.200674
-0.0117884
0.190607
-0.0119129
0.181095
-0.0119876
0.172128
-0.0120565
0.163716
-0.0120894
0.15579
-0.0120692
0.148328
-0.0120017
0.141319
-0.0118567
0.134681
-0.0116082
0.128409
-0.0112645
0.122486
-0.0108136
0.116918
-0.0102409
0.11165
-0.00947889
0.106687
-0.00860735
0.101837
-0.00709548
0.0962251
-0.00440573
0.0845623
0.0502701
0.00343314
0.970059
0.00234965
0.946203
0.000678037
0.903339
-0.000597848
0.861099
-0.00192569
0.820754
-0.00314206
0.782608
-0.00437486
0.746068
-0.00555572
0.711299
-0.00668382
0.677864
-0.00764486
0.645908
-0.00869139
0.615414
-0.009721
0.586215
-0.0105826
0.558197
-0.0115787
0.531607
-0.0125489
0.506104
-0.0133056
0.481511
-0.0139413
0.458005
-0.0144605
0.435593
-0.0149354
0.414175
-0.0153726
0.393722
-0.0157853
0.374194
-0.0161619
0.355517
-0.0164805
0.337726
-0.0166969
0.32072
-0.016681
0.304375
-0.0165336
0.288832
-0.0166283
0.274361
-0.0169576
0.260592
-0.0171612
0.247183
-0.0171689
0.234507
-0.0172277
0.222692
-0.0173487
0.211457
-0.0174071
0.200732
-0.017406
0.190606
-0.0173855
0.181074
-0.017335
0.172077
-0.0172007
0.163582
-0.0170032
0.155592
-0.0167389
0.148063
-0.0163735
0.140953
-0.0159176
0.134225
-0.0153742
0.127865
-0.0147166
0.121829
-0.0139326
0.116134
-0.0130187
0.110736
-0.0119278
0.105596
-0.0106987
0.100608
-0.00872474
0.0942512
-0.00521463
0.0810521
0.0450555
0.00220518
0.967854
0.000433492
0.947975
-0.00187694
0.905649
-0.00371638
0.862938
-0.00570195
0.822739
-0.00742486
0.78433
-0.00906457
0.747708
-0.0106124
0.712847
-0.0118784
0.67913
-0.0131915
0.647221
-0.0141093
0.616332
-0.0149453
0.587051
-0.0158034
0.559055
-0.0162867
0.532091
-0.016729
0.506546
-0.0173191
0.482101
-0.0178918
0.458578
-0.0184922
0.436193
-0.0190525
0.414735
-0.0195632
0.394232
-0.0200295
0.374661
-0.0204614
0.355949
-0.0208707
0.338136
-0.0212945
0.321143
-0.0218967
0.304977
-0.0225603
0.289495
-0.0228794
0.27468
-0.0228984
0.260611
-0.0230132
0.247298
-0.0232537
0.234747
-0.023327
0.222765
-0.0232509
0.211381
-0.0231625
0.200644
-0.0230328
0.190476
-0.0228147
0.180856
-0.0225083
0.171771
-0.022155
0.163229
-0.0217227
0.15516
-0.0211944
0.147535
-0.020584
0.140343
-0.0198658
0.133507
-0.019014
0.127013
-0.0180463
0.120861
-0.016954
0.115041
-0.0157486
0.109531
-0.0144763
0.104324
-0.0127918
0.0989234
-0.0102877
0.0917472
-0.00599154
0.076756
0.0390639
0.0013953
0.966459
-0.00160523
0.950976
-0.0043972
0.908441
-0.00640369
0.864944
-0.00840703
0.824743
-0.0102817
0.786205
-0.0120992
0.749525
-0.0136974
0.714445
-0.0154079
0.680841
-0.0167965
0.648609
-0.018179
0.617714
-0.0196236
0.588496
-0.0209195
0.560351
-0.0224098
0.533581
-0.0237206
0.507857
-0.0247738
0.483154
-0.0257369
0.459541
-0.0265255
0.436982
-0.0272279
0.415438
-0.0278549
0.394859
-0.0284208
0.375227
-0.0289019
0.35643
-0.0292799
0.338514
-0.0295143
0.321378
-0.0294574
0.30492
-0.0292405
0.289279
-0.0292585
0.274698
-0.0294635
0.260816
-0.0294749
0.247309
-0.0292721
0.234544
-0.0291217
0.222615
-0.0289893
0.211248
-0.0287442
0.200399
-0.0284022
0.190134
-0.0280086
0.180462
-0.0275553
0.171317
-0.0269837
0.162657
-0.0263155
0.154491
-0.0255553
0.146775
-0.0246669
0.139455
-0.0236643
0.132504
-0.0225698
0.125919
-0.0213593
0.119651
-0.0200251
0.113707
-0.0185605
0.108066
-0.0170703
0.102834
-0.0149844
0.0968375
-0.0119547
0.0887175
-0.00676997
0.0715712
0.032294
0.000479743
0.965979
-0.00316233
0.954618
-0.00652569
0.911804
-0.00943648
0.867855
-0.0122391
0.827545
-0.0146684
0.788634
-0.0166797
0.751536
-0.0185104
0.716276
-0.0202928
0.682623
-0.0220313
0.650348
-0.0236861
0.619369
-0.0248915
0.589701
-0.0259914
0.561451
-0.0267046
0.534294
-0.0274645
0.508617
-0.028386
0.484076
-0.0292439
0.460398
-0.0301024
0.43784
-0.0308897
0.416225
-0.0315896
0.395559
-0.0322022
0.375839
-0.0327405
0.356968
-0.0332174
0.338991
-0.0336852
0.321846
-0.0343087
0.305543
-0.0349779
0.289948
-0.035264
0.274984
-0.0351959
0.260748
-0.0351658
0.247279
-0.0351981
0.234577
-0.035007
0.222424
-0.0346301
0.210871
-0.0342128
0.199982
-0.0337289
0.18965
-0.0331243
0.179858
-0.0323992
0.170592
-0.0316061
0.161864
-0.0307135
0.153599
-0.0297019
0.145763
-0.0285999
0.138353
-0.0273947
0.131299
-0.0260558
0.12458
-0.0246189
0.118214
-0.0231035
0.112192
-0.0215279
0.106491
-0.0196668
0.100973
-0.0172323
0.0944029
-0.0135888
0.085074
-0.00746924
0.0654516
0.0248247
-0.000202674
0.966182
-0.00421303
0.958628
-0.00803696
0.915628
-0.011531
0.871349
-0.0143097
0.830324
-0.0168145
0.791139
-0.0193853
0.754107
-0.0215858
0.718476
-0.0237054
0.684743
-0.0255531
0.652196
-0.0272592
0.621075
-0.0291419
0.591584
-0.0309894
0.563298
-0.0330052
0.53631
-0.0346538
0.510265
-0.036023
0.485445
-0.0372775
0.461653
-0.0383226
0.438885
-0.0392607
0.417163
-0.0400919
0.39639
-0.040818
0.376565
-0.0414138
0.357564
-0.0418605
0.339437
-0.0421082
0.322093
-0.0420092
0.305444
-0.0416839
0.289623
-0.0415248
0.274825
-0.0415318
0.260755
-0.0413402
0.247088
-0.0409042
0.234141
-0.0404893
0.222009
-0.0400583
0.21044
-0.0394732
0.199397
-0.038757
0.188934
-0.0379697
0.17907
-0.0371127
0.169735
-0.0361218
0.160873
-0.0350204
0.152497
-0.0338279
0.144571
-0.032507
0.137032
-0.0310695
0.129862
-0.0295645
0.123075
-0.0279636
0.116613
-0.0262555
0.110484
-0.0245938
0.104829
-0.0223922
0.0987712
-0.0195814
0.0915922
-0.015076
0.0805686
-0.00805613
0.0584318
0.0167686
-0.000865851
0.967048
-0.00567276
0.963435
-0.00979749
0.919753
-0.0138906
0.875442
-0.0174558
0.833889
-0.020601
0.794284
-0.023306
0.756812
-0.0259231
0.721093
-0.0281448
0.686965
-0.0302417
0.654293
-0.0323756
0.623209
-0.0339529
0.593161
-0.0353201
0.564665
-0.0363235
0.537313
-0.0375473
0.511489
-0.0387958
0.486693
-0.0399644
0.462822
-0.0410928
0.440014
-0.0421196
0.41819
-0.043031
0.397302
-0.0438112
0.377345
-0.0444766
0.35823
-0.0450391
0.34
-0.0455514
0.322606
-0.0461738
0.306067
-0.0468227
0.290272
-0.0470844
0.275087
-0.0469057
0.260576
-0.0466761
0.246858
-0.0464685
0.233933
-0.0460047
0.221545
-0.0453219
0.209758
-0.0445738
0.198648
-0.0437466
0.188107
-0.0427809
0.178105
-0.0416723
0.168627
-0.0404911
0.159692
-0.0392151
0.151221
-0.0378142
0.14317
-0.0363281
0.135546
-0.0347677
0.128301
-0.0330903
0.121398
-0.0313512
0.114874
-0.0296489
0.108781
-0.0276806
0.102861
-0.0251255
0.096216
-0.0216357
0.0881024
-0.015899
0.0748319
-0.00709894
0.0496317
0.00966965
-0.00144309
0.968491
-0.00689627
0.968888
-0.0111691
0.924026
-0.0150144
0.879288
-0.0187675
0.837642
-0.0221035
0.79762
-0.025191
0.7599
-0.0278276
0.72373
-0.0304135
0.68955
-0.03281
0.656689
-0.0349078
0.625307
-0.0373567
0.59561
-0.0398028
0.567112
-0.0423228
0.539833
-0.0443385
0.513505
-0.0460748
0.48843
-0.0476792
0.464426
-0.0490574
0.441392
-0.0502859
0.419418
-0.0513543
0.39837
-0.0522712
0.378262
-0.0530232
0.358982
-0.0535885
0.340565
-0.0539019
0.322919
-0.0538114
0.305976
-0.0533836
0.289844
-0.0530169
0.27472
-0.052825
0.260384
-0.0524528
0.246486
-0.0517892
0.233269
-0.0511054
0.220861
-0.050393
0.209045
-0.0495094
0.197765
-0.0484666
0.187064
-0.04734
0.176978
-0.0461525
0.167439
-0.0448322
0.158372
-0.0433964
0.149786
-0.0418865
0.14166
-0.0402689
0.133928
-0.0385336
0.126566
-0.0367543
0.119618
-0.0349334
0.113053
-0.0331071
0.106955
-0.0307678
0.100522
-0.0279132
0.0933614
-0.0234439
0.0836331
-0.0158333
0.0672213
-0.00502609
0.0388245
0.00464356
-0.00235182
0.970842
-0.00810244
0.974639
-0.0126898
0.928613
-0.0169942
0.883592
-0.0209766
0.841625
-0.0246725
0.801316
-0.0277019
0.762929
-0.030948
0.726976
-0.0337809
0.692383
-0.0365082
0.659416
-0.039009
0.627808
-0.0409758
0.597577
-0.0426465
0.568782
-0.0441955
0.541382
-0.0459566
0.515266
-0.0475958
0.490069
-0.0491706
0.466001
-0.050663
0.442884
-0.0520196
0.420775
-0.0532324
0.399583
-0.054267
0.379297
-0.0551316
0.359846
-0.0558378
0.341271
-0.0564415
0.323523
-0.0570878
0.306623
-0.0577565
0.290512
-0.0580469
0.275011
-0.0577897
0.260127
-0.0573701
0.246066
-0.0569566
0.232856
-0.0562783
0.220183
-0.055341
0.208108
-0.0543138
0.196738
-0.0532163
0.185967
-0.0519835
0.175745
-0.0505909
0.166047
-0.0491265
0.156907
-0.0475888
0.148248
-0.045932
0.140003
-0.0441894
0.132185
-0.042407
0.124784
-0.0405352
0.117746
-0.0387561
0.111274
-0.0366434
0.104842
-0.0339696
0.0978478
-0.0302497
0.0896414
-0.0244431
0.0778265
-0.0153263
0.0581045
-0.00311967
0.0266178
0.0015239
-0.00236971
0.973212
-0.00805026
0.980319
-0.0128453
0.933408
-0.0172573
0.888004
-0.0210064
0.845374
-0.0247101
0.80502
-0.0283437
0.766563
-0.031306
0.729938
-0.0342135
0.695291
-0.037102
0.662305
-0.0400195
0.630725
-0.0431352
0.600693
-0.0463083
0.571955
-0.0491662
0.54424
-0.0515922
0.517692
-0.0538987
0.492375
-0.0560277
0.46813
-0.0578909
0.444747
-0.0595466
0.422431
-0.0609881
0.401024
-0.0622144
0.380523
-0.0632294
0.360861
-0.0640093
0.342051
-0.0644858
0.323999
-0.0645116
0.306648
-0.0640867
0.290088
-0.0635944
0.274518
-0.0632752
0.259807
-0.0628135
0.245604
-0.0619924
0.232035
-0.0610899
0.219281
-0.0601661
0.207184
-0.0590772
0.195649
-0.0578042
0.184694
-0.0564348
0.174376
-0.0550269
0.164639
-0.053501
0.155381
-0.0518548
0.146602
-0.0501498
0.138298
-0.0483782
0.130414
-0.046484
0.12289
-0.0446963
0.115959
-0.042769
0.109346
-0.0402938
0.102367
-0.0371485
0.0947025
-0.0325497
0.0850426
-0.0250213
0.0702981
-0.01362
0.0467032
-0.00191477
0.0149126
-0.000390872
-0.00169497
0.974907
-0.00719706
0.985822
-0.0125428
0.938754
-0.0176599
0.893121
-0.0216419
0.849356
-0.0255644
0.808943
-0.0293783
0.770377
-0.033005
0.733565
-0.0364618
0.698748
-0.03959
0.665433
-0.0424868
0.633622
-0.0449166
0.603123
-0.0470557
0.574094
-0.049454
0.546639
-0.0518479
0.520086
-0.0540105
0.494538
-0.0560719
0.470191
-0.0580885
0.446764
-0.0599568
0.424299
-0.0616376
0.402705
-0.0631002
0.381986
-0.064337
0.362098
-0.0653381
0.343052
-0.066159
0.32482
-0.0669359
0.307425
-0.0677267
0.290878
-0.068166
0.274958
-0.0679529
0.259594
-0.067427
0.245079
-0.0668966
0.231504
-0.0661133
0.218497
-0.0650141
0.206085
-0.0637856
0.19442
-0.0625077
0.183416
-0.0611205
0.172989
-0.0595644
0.163083
-0.0579322
0.153749
-0.0562528
0.144922
-0.0544754
0.136521
-0.0525997
0.128538
-0.0508332
0.121123
-0.0490649
0.11419
-0.0468062
0.107088
-0.0441417
0.0997028
-0.040464
0.0910247
-0.0345322
0.0791109
-0.0246488
0.0604147
-0.00999602
0.0320505
-0.00121113
0.00612772
-0.001602
-0.00192736
0.976834
-0.00686394
0.990758
-0.0117173
0.943607
-0.0163846
0.897788
-0.0205267
0.853498
-0.0242625
0.812678
-0.0279513
0.774065
-0.0313536
0.736967
-0.0346785
0.702073
-0.038139
0.668894
-0.0417373
0.63722
-0.0455648
0.60695
-0.0493433
0.577873
-0.0525823
0.549877
-0.0556924
0.523196
-0.0588119
0.497657
-0.0616837
0.473063
-0.0642004
0.449281
-0.0664794
0.426578
-0.0685079
0.404734
-0.0702704
0.383748
-0.0717653
0.363593
-0.0729655
0.344252
-0.073802
0.325657
-0.07414
0.307763
-0.0739089
0.290647
-0.0734559
0.274505
-0.0731345
0.259273
-0.0727128
0.244657
-0.0718601
0.230652
-0.0708317
0.217469
-0.0697828
0.205036
-0.0685915
0.193229
-0.067195
0.182019
-0.0656769
0.171471
-0.0641449
0.161551
-0.0625311
0.152135
-0.060797
0.143188
-0.0590022
0.134726
-0.0572738
0.12681
-0.0555903
0.119439
-0.0535214
0.112122
-0.0511202
0.104686
-0.0479744
0.0965569
-0.0430375
0.0860878
-0.0343983
0.0704717
-0.0207737
0.0467901
-0.0057624
0.0170392
-0.000601008
0.000966326
-0.00220301
-0.00151032
0.978345
-0.00677064
0.996018
-0.0111414
0.947978
-0.0154489
0.902096
-0.0194493
0.857498
-0.0235054
0.816734
-0.0272243
0.777784
-0.0313129
0.741056
-0.0352669
0.706027
-0.0387203
0.672347
-0.0419766
0.640476
-0.0449398
0.609913
-0.047921
0.580854
-0.0512398
0.553196
-0.0543471
0.526303
-0.0572267
0.500537
-0.0600359
0.475872
-0.062764
0.452009
-0.0653957
0.42921
-0.0678221
0.40716
-0.0699604
0.385887
-0.0718238
0.365456
-0.0733902
0.345819
-0.0746914
0.326958
-0.0758369
0.308909
-0.0769422
0.291752
-0.0777189
0.275281
-0.0777499
0.259304
-0.0772781
0.244185
-0.076738
0.230112
-0.0759519
0.216683
-0.0747981
0.203882
-0.073443
0.191874
-0.0720422
0.180618
-0.0705828
0.170011
-0.0689604
0.159928
-0.0672499
0.150425
-0.0655308
0.141469
-0.0638073
0.133003
-0.0621294
0.125132
-0.0602137
0.117524
-0.0580211
0.109929
-0.0552436
0.101909
-0.0509887
0.092302
-0.0436445
0.0787437
-0.0314464
0.0582736
-0.0138645
0.0292082
-0.0028398
0.00601447
-4.52179e-05
-0.00182825
-0.00224823
0.000168978
0.978176
-0.00459177
1.00078
-0.00821831
0.951605
-0.0120329
0.90591
-0.0162789
0.861744
-0.0200471
0.820503
-0.0236714
0.781409
-0.0274353
0.74482
-0.0311625
0.709754
-0.0353002
0.676485
-0.0396142
0.64479
-0.0440761
0.614375
-0.0483227
0.585101
-0.0521522
0.557026
-0.0561718
0.530323
-0.0602249
0.50459
-0.0639258
0.479573
-0.0674053
0.455488
-0.0705981
0.432402
-0.0735206
0.410083
-0.0761524
0.388518
-0.0784564
0.36776
-0.0803997
0.347762
-0.0819239
0.328482
-0.0829165
0.309901
-0.0831756
0.292011
-0.0829845
0.27509
-0.0828398
0.259159
-0.0826306
0.243976
-0.0819128
0.229394
-0.0808572
0.215627
-0.0797226
0.202747
-0.078479
0.19063
-0.0770262
0.179166
-0.0753995
0.168385
-0.0737757
0.158305
-0.0721455
0.148794
-0.0704509
0.139775
-0.0687684
0.13132
-0.0670114
0.123375
-0.065027
0.11554
-0.0625121
0.107414
-0.0587939
0.0981908
-0.0523351
0.0858431
-0.0409786
0.0673872
-0.0232596
0.0405547
-0.0070329
0.0129814
-0.00118873
0.000170307
0.000130267
-0.00314725
-0.00211796
0.00162033
0.976555
-0.00214798
1.00455
-0.00557936
0.955036
-0.00943954
0.909771
-0.0132787
0.865584
-0.017687
0.824911
-0.0216817
0.785403
-0.0256597
0.748798
-0.0296804
0.713774
-0.0334922
0.680296
-0.0371328
0.648431
-0.0407956
0.618038
-0.0448103
0.589115
-0.0491175
0.561333
-0.0530342
0.534239
-0.0567086
0.508264
-0.060521
0.483386
-0.0643558
0.459323
-0.068001
0.436048
-0.0714491
0.413531
-0.0746306
0.3917
-0.0774525
0.370582
-0.0799123
0.350222
-0.0820311
0.330601
-0.0838821
0.311752
-0.0856094
0.293739
-0.087024
0.276505
-0.0876144
0.25975
-0.0874102
0.243772
-0.0869615
0.228945
-0.0862695
0.214935
-0.0851602
0.201638
-0.0837102
0.18918
-0.0821416
0.177597
-0.080585
0.166828
-0.0789243
0.156644
-0.0771771
0.147047
-0.0754562
0.138054
-0.0737884
0.129652
-0.0719309
0.121517
-0.0696109
0.113219
-0.0662508
0.104054
-0.0604838
0.0924237
-0.0499603
0.0753197
-0.0327276
0.0501545
-0.0131023
0.0209294
-0.00318551
0.0030646
-0.000261345
-0.00275386
0.000207377
-0.00361598
-0.00191059
0.00292581
0.97363
0.000471045
1.007
-0.00256177
0.958069
-0.00563883
0.912848
-0.00867286
0.868618
-0.0122249
0.828463
-0.0159168
0.789095
-0.0196691
0.75255
-0.0237418
0.717847
-0.0285499
0.685105
-0.0333618
0.653243
-0.0382436
0.62292
-0.0429703
0.593842
-0.0475686
0.565931
-0.0526346
0.539305
-0.0577845
0.513414
-0.0625848
0.488186
-0.0672101
0.463949
-0.0716149
0.440452
-0.0757776
0.417693
-0.0796326
0.395555
-0.083143
0.374093
-0.0862366
0.353315
-0.0888461
0.333211
-0.0908608
0.313767
-0.0920431
0.294921
-0.0924445
0.276906
-0.0927344
0.26004
-0.0929407
0.243978
-0.0925967
0.228601
-0.0916605
0.213999
-0.0904428
0.20042
-0.0890941
0.187831
-0.0875617
0.176065
-0.0857685
0.165035
-0.0839477
0.154823
-0.0822474
0.145347
-0.0805791
0.136385
-0.0787823
0.127856
-0.0765513
0.119286
-0.0734009
0.110069
-0.0682209
0.0988739
-0.0585676
0.0827704
-0.0419237
0.0586758
-0.0199574
0.0281881
-0.00570904
0.00668111
-0.00095389
-0.00169054
0.000295886
-0.00400363
0.000280656
-0.00360075
-0.00162993
0.00418443
0.969445
0.00261991
1.00857
-0.000230623
0.960919
-0.00318086
0.915798
-0.00534549
0.870782
-0.00875781
0.831875
-0.0127397
0.793077
-0.0167965
0.756607
-0.0206963
0.721747
-0.0244907
0.688899
-0.0285441
0.657296
-0.0329602
0.627336
-0.0378416
0.598724
-0.0428135
0.570903
-0.0475297
0.544022
-0.0522682
0.518153
-0.0573389
0.493256
-0.0624434
0.469053
-0.0674228
0.445432
-0.0721968
0.422467
-0.0767302
0.400088
-0.0809597
0.378322
-0.0847314
0.357087
-0.0880517
0.336531
-0.0909575
0.316673
-0.0936438
0.297608
-0.0961205
0.279383
-0.0976814
0.261601
-0.0981076
0.244404
-0.0979204
0.228414
-0.0974018
0.21348
-0.0964393
0.199458
-0.0949423
0.186334
-0.0930755
0.174198
-0.0912134
0.163173
-0.0893908
0.153
-0.087464
0.14342
-0.0855138
0.134435
-0.0832811
0.125623
-0.0803073
0.116312
-0.0756153
0.105377
-0.0667972
0.0900557
-0.050462
0.0664352
-0.0271111
0.0353249
-0.0093723
0.0104493
-0.00260348
-8.77165e-05
-0.000479796
-0.00381422
0.000113755
-0.00459718
0.000153871
-0.00364086
-0.00147606
0.00612104
0.963324
0.00596034
1.00873
0.00393692
0.962943
0.00143604
0.918299
-0.000872456
0.873091
-0.00282423
0.833827
-0.00590783
0.796161
-0.00972416
0.760423
-0.013986
0.726009
-0.0187287
0.693642
-0.0235113
0.662079
-0.0286879
0.632512
-0.0338073
0.603843
-0.0392643
0.57636
-0.0453094
0.550067
-0.0514371
0.52428
-0.0573585
0.499178
-0.0632456
0.47494
-0.0690417
0.451228
-0.0747139
0.42814
-0.0801536
0.405528
-0.0852654
0.383434
-0.0899765
0.361798
-0.0941407
0.340695
-0.0976636
0.320196
-0.100315
0.300259
-0.101804
0.280872
-0.102822
0.262618
-0.103731
0.245314
-0.104073
0.228756
-0.103554
0.212961
-0.102346
0.19825
-0.100767
0.184755
-0.0990101
0.172441
-0.0969084
0.161071
-0.0946142
0.150706
-0.0923464
0.141152
-0.0899139
0.132003
-0.087021
0.12273
-0.0825836
0.111875
-0.0743691
0.0971626
-0.0583734
0.07406
-0.034257
0.0423188
-0.0139779
0.0150458
-0.00538259
0.00185403
-0.00237735
-0.00309295
-0.00133306
-0.00485852
-0.00076135
-0.00516889
-0.000258919
-0.00414329
-0.00173498
0.00586812
0.957456
0.00767748
1.00692
0.00752973
0.963091
0.00553764
0.920291
0.00243544
0.876193
9.65149e-05
0.836166
-0.00269172
0.798949
-0.00592009
0.763652
-0.00955435
0.729643
-0.0131011
0.697188
-0.0175927
0.666571
-0.0223048
0.637224
-0.0274323
0.60897
-0.0328519
0.58178
-0.0382215
0.555436
-0.0439753
0.530034
-0.0502108
0.505413
-0.0565901
0.48132
-0.0630247
0.457663
-0.0694083
0.434523
-0.0756102
0.41173
-0.0815067
0.389331
-0.0870267
0.367318
-0.0921168
0.345785
-0.0966318
0.324711
-0.100666
0.304293
-0.104509
0.284715
-0.107542
0.265651
-0.109263
0.247035
-0.10979
0.229283
-0.109605
0.212776
-0.108904
0.19755
-0.107509
0.183359
-0.105297
0.170229
-0.102678
0.158452
-0.0999855
0.148014
-0.0970456
0.138212
-0.0937575
0.128715
-0.0890655
0.118038
-0.0810601
0.10387
-0.0655092
0.0816116
-0.0409681
0.0495189
-0.018466
0.0198167
-0.00756271
0.00414247
-0.00356914
-0.00213955
-0.00208878
-0.00457331
-0.0013981
-0.00554919
-0.000926432
-0.00564056
-0.000425088
-0.00464464
-0.00216007
0.00544683
0.952009
0.0083274
1.00404
0.00988415
0.961534
0.0102611
0.919914
0.00793155
0.878522
0.00560417
0.838493
0.00375455
0.800799
0.000706538
0.7667
-0.00316519
0.733515
-0.00742224
0.701445
-0.0118487
0.670997
-0.0168004
0.642176
-0.0221061
0.614276
-0.0280753
0.587749
-0.0346218
0.561983
-0.0413838
0.536796
-0.0482506
0.51228
-0.0553254
0.488394
-0.0625451
0.464882
-0.0698234
0.441801
-0.0770357
0.418942
-0.0840651
0.39636
-0.0907867
0.37404
-0.0969733
0.351972
-0.102514
0.330252
-0.107194
0.308973
-0.110521
0.288042
-0.112728
0.267857
-0.114699
0.249006
-0.116104
0.230688
-0.116571
0.213243
-0.11581
0.196789
-0.114018
0.181567
-0.111925
0.168137
-0.109163
0.155691
-0.105565
0.144415
-0.101471
0.134119
-0.0958764
0.12312
-0.0872446
0.109406
-0.0719685
0.0885935
-0.0473723
0.0570155
-0.0219653
0.0241119
-0.00773817
0.00558956
-0.00189775
-0.00169795
0.000426904
-0.0044642
0.00107214
-0.00521855
0.000848637
-0.00532569
0.000273215
-0.00506514
-9.35649e-05
-0.00427786
-0.00225363
0.00651141
0.945498
0.0096854
1.00086
0.0106602
0.960559
0.0114081
0.919166
0.0102781
0.879653
0.00768611
0.841085
0.0057096
0.802775
0.0040312
0.768378
0.00147493
0.736071
-0.0020901
0.70501
-0.00617186
0.675079
-0.0103974
0.646402
-0.0154438
0.619323
-0.0208152
0.59312
-0.0264418
0.567609
-0.0328034
0.543158
-0.0397928
0.51927
-0.0471933
0.495795
-0.0549578
0.472647
-0.0629035
0.449747
-0.0708842
0.426923
-0.0787296
0.404205
-0.0863187
0.381629
-0.093517
0.35917
-0.100192
0.336927
-0.106193
0.314974
-0.111736
0.293586
-0.116934
0.273056
-0.120552
0.252623
-0.12261
0.232746
-0.123347
0.213979
-0.123109
0.196551
-0.122211
0.180669
-0.119911
0.165837
-0.116185
0.151964
-0.11122
0.13945
-0.104583
0.127482
-0.0948833
0.11342
-0.078756
0.0932789
-0.0525732
0.0624106
-0.0240574
0.0284997
-0.00475231
0.00480682
0.00423025
-0.003393
0.00784461
-0.00531231
0.0086676
-0.00528719
0.00785201
-0.00440296
0.00589405
-0.00336773
0.00339873
-0.00256982
0.00113795
-0.00201707
-0.00111568
0.0138647
0.931633
0.0148919
0.999836
0.0140125
0.961438
0.0143883
0.91879
0.0150631
0.878978
0.0135216
0.842627
0.01106
0.805237
0.0085099
0.770928
0.00612132
0.73846
0.00326517
0.707867
-0.000533991
0.678878
-0.00510292
0.650971
-0.0100317
0.624251
-0.0156656
0.598754
-0.0222016
0.574145
-0.0290785
0.550035
-0.0363635
0.526555
-0.044204
0.503635
-0.0525284
0.480971
-0.0611999
0.458419
-0.0701092
0.435832
-0.0791054
0.413202
-0.0879992
0.390523
-0.0965785
0.367749
-0.104626
0.344974
-0.11184
0.322188
-0.117865
0.29961
-0.122234
0.277425
-0.125664
0.256053
-0.128425
0.235508
-0.13049
0.216044
-0.131263
0.197324
-0.129836
0.179242
-0.12701
0.163011
-0.122938
0.147893
-0.116446
0.132959
-0.105864
0.1169
-0.0874767
0.0950326
-0.0575671
0.0633693
-0.0246728
0.0295164
-0.000436663
0.00426357
0.0114954
-0.00712521
0.015824
-0.00772164
0.0164447
-0.00593295
0.0151538
-0.00399634
0.0127235
-0.00197263
0.00952039
-0.000164637
0.00584184
0.00110873
0.00222944
0.00159533
0.00111376
0.0206771
0.910956
0.0197685
1.00074
0.0172575
0.963949
0.0149983
0.92105
0.015052
0.878924
0.0144292
0.84325
0.0125843
0.807082
0.011077
0.772436
0.00908306
0.740454
0.00674817
0.710202
0.00416928
0.681457
0.000900832
0.654239
-0.00340377
0.628556
-0.00812281
0.603473
-0.0133715
0.579394
-0.0196309
0.556294
-0.0266912
0.533615
-0.034485
0.511429
-0.0430134
0.4895
-0.0520972
0.467502
-0.061598
0.445333
-0.0712857
0.422889
-0.0809849
0.400222
-0.0905335
0.377298
-0.0996754
0.354116
-0.108249
0.330761
-0.116311
0.307673
-0.123887
0.285002
-0.130206
0.262371
-0.134755
0.240056
-0.137478
0.218768
-0.13823
0.198076
-0.138007
0.179019
-0.135991
0.160995
-0.129937
0.141839
-0.118336
0.121358
-0.0978719
0.0964351
-0.0636878
0.0608485
-0.0270074
0.0266889
-0.000821406
0.00333041
0.0132085
-0.00976632
0.0177956
-0.0117124
0.0187313
-0.00865725
0.0179937
-0.00519542
0.0159525
-0.00195516
0.013044
0.000935918
0.00960109
0.00327827
0.00587935
0.00483046
0.00224519
0.0052295
0.00335894
0.0253734
0.885583
0.0218345
1.00428
0.0196169
0.966167
0.017933
0.922733
0.0176325
0.879224
0.0178017
0.84308
0.0163222
0.808561
0.0144381
0.77432
0.0130922
0.7418
0.01087
0.712424
0.00796903
0.684358
0.00473745
0.657471
0.00118518
0.632108
-0.00367482
0.608333
-0.00949653
0.585216
-0.0157075
0.562505
-0.0227121
0.540619
-0.0305312
0.519248
-0.039182
0.49815
-0.0486158
0.476936
-0.058742
0.455459
-0.0693907
0.433538
-0.0803167
0.411148
-0.0912202
0.388202
-0.101942
0.364837
-0.112265
0.341085
-0.12152
0.316928
-0.128981
0.292462
-0.135048
0.268438
-0.139896
0.244905
-0.143457
0.222328
-0.146821
0.20144
-0.147104
0.179302
-0.141436
0.155327
-0.130221
0.130623
-0.107626
0.0987632
-0.0716289
0.0604379
-0.0373642
0.0265838
-0.015528
0.00485265
-0.00489319
-0.00730437
-0.00175051
-0.012909
0.000704831
-0.0141677
0.00307831
-0.0110307
0.00454418
-0.0066613
0.00484711
-0.0022581
0.00420873
0.0015743
0.00310362
0.00438338
0.00165694
0.00627714
0.000431774
0.00645466
0.00379072
0.0166144
0.868968
0.0192515
1.00165
0.017112
0.968307
0.0151716
0.924674
0.0149529
0.879443
0.0162177
0.841816
0.0163107
0.808468
0.0148362
0.775794
0.0134744
0.743161
0.0126087
0.71329
0.0115889
0.685377
0.00939387
0.659666
0.0063557
0.635146
0.00307751
0.611611
-0.00100479
0.589298
-0.00647071
0.567971
-0.0128919
0.547041
-0.0202393
0.526596
-0.0286178
0.506529
-0.0380624
0.486381
-0.0484498
0.465847
-0.0594746
0.444563
-0.0709227
0.422596
-0.082623
0.399902
-0.0944086
0.376623
-0.105987
0.352663
-0.116952
0.327893
-0.127388
0.302898
-0.136836
0.277886
-0.145058
0.253127
-0.151233
0.228503
-0.154054
0.204261
-0.151257
0.176504
-0.141567
0.145638
-0.119217
0.108274
-0.0892119
0.0687577
-0.0646576
0.0358836
-0.0530878
0.0150141
-0.0482673
3.21486e-05
-0.0433999
-0.0121718
-0.0364962
-0.0198127
-0.0277651
-0.0228988
-0.0188366
-0.0199592
-0.011615
-0.0138829
-0.00651325
-0.00735983
-0.00405136
-0.00088759
-0.00293653
0.00326855
-0.0019822
0.0053228
-0.000996225
0.00546869
0.00279449
0.0112513
0.857717
0.0169353
0.995963
0.0156944
0.969548
0.0155494
0.924819
0.0146479
0.880345
0.0148947
0.841569
0.0174661
0.805897
0.0175973
0.775663
0.0160628
0.744696
0.0145209
0.714831
0.0126756
0.687223
0.0111076
0.661234
0.00906507
0.637189
0.00568177
0.614995
0.00148392
0.593496
-0.00336957
0.572824
-0.00932294
0.552994
-0.016218
0.533491
-0.0242416
0.514553
-0.0336475
0.495787
-0.0442496
0.476449
-0.0559013
0.456215
-0.068299
0.434994
-0.0812855
0.412888
-0.0946762
0.390013
-0.108041
0.366028
-0.120914
0.340766
-0.132268
0.314252
-0.141752
0.287369
-0.150321
0.261697
-0.155533
0.233715
-0.154813
0.203541
-0.149849
0.171541
-0.130247
0.126036
-0.107863
0.0858896
-0.0921272
0.0530216
-0.0893452
0.0331016
-0.0872956