/*--------------------------------*- C++ -*----------------------------------*\
| =========                 |                                                 |
| \\      /  F ield         | OpenFOAM: The Open Source CFD Toolbox           |
|  \\    /   O peration     | Version:  v1912                                 |
|   \\  /    A nd           | Website:  www.openfoam.com                      |
|    \\/     M anipulation  |                                                 |
\*---------------------------------------------------------------------------*/
FoamFile
{
    version     2.0;
    format      ascii;
    class       volVectorField;
    location    "0.13";
    object      U;
}
// * * * * * * * * * * * * * * * * * * * * * * * * * * * * * * * * * * * * * //

dimensions      [0 1 -1 0 0 0 0];


internalField   nonuniform List<vector> 
6600
(
(39.8468 -0.0431331 0)
(40.0935 -0.0465625 1.01682e-20)
(40.1632 0.0474343 7.13599e-19)
(40.2081 0.157869 0)
(40.2459 0.26859 8.64792e-19)
(40.3072 0.39926 2.89075e-20)
(40.3596 0.548362 -3.20699e-20)
(40.4221 0.698124 -3.60205e-20)
(40.4609 0.861285 7.54344e-19)
(40.5011 1.05163 -1.16094e-19)
(40.5087 1.23961 0)
(40.5185 1.47633 -9.99076e-19)
(40.5355 1.68942 0)
(40.5662 1.94286 -1.11e-18)
(40.5489 2.20139 -1.63316e-18)
(40.5014 2.48248 -9.0082e-19)
(40.4376 2.7719 0)
(40.3634 3.07194 0)
(40.2779 3.38991 1.63611e-18)
(40.1839 3.72276 -1.51816e-18)
(40.0775 4.07868 -2.32412e-19)
(39.9444 4.45363 -9.05449e-19)
(39.8126 4.85113 -1.73377e-18)
(39.6648 5.27376 4.03226e-19)
(39.5055 5.71569 1.5094e-18)
(39.277 6.14631 0)
(39.0625 6.60096 3.91883e-18)
(38.895 7.13326 0)
(38.6635 7.72544 -2.05493e-18)
(38.3814 8.32186 -1.37567e-18)
(38.1417 8.94454 -3.37531e-19)
(37.9037 9.63401 -1.7835e-18)
(37.6126 10.3617 -7.49014e-19)
(37.3081 11.1287 1.57006e-18)
(37.0215 11.9505 3.48454e-19)
(36.7405 12.845 1.92047e-18)
(36.4639 13.7998 3.72808e-18)
(36.2031 14.8095 3.73891e-18)
(35.9657 15.9002 -2.77715e-18)
(35.7452 17.0596 2.98401e-18)
(35.5404 18.2944 1.59873e-18)
(35.3582 19.617 0)
(35.2049 21.016 -4.37917e-19)
(35.0904 22.5077 1.0745e-18)
(35.059 24.0883 0)
(35.0967 25.8216 -5.60579e-19)
(35.1186 27.4901 -1.5634e-18)
(35.4359 29.6327 0)
(33.8551 30.3749 0)
(24.3026 23.3319 -1.53199e-18)
(39.7401 -0.0499324 5.97118e-19)
(40.1758 -0.0726424 -5.99826e-19)
(40.2408 0.0619969 0)
(40.2948 0.186342 -1.11541e-20)
(40.3407 0.329867 7.58604e-19)
(40.401 0.501292 2.67271e-20)
(40.455 0.671049 -9.40439e-23)
(40.4987 0.851272 -3.28707e-20)
(40.5511 1.05004 0)
(40.582 1.23969 -1.28331e-18)
(40.6323 1.47084 -4.66086e-20)
(40.6492 1.65906 8.06441e-19)
(40.6471 1.89845 8.60887e-19)
(40.638 2.12983 6.73165e-19)
(40.6395 2.37579 -3.87471e-21)
(40.6342 2.6334 9.45814e-20)
(40.605 2.91737 -8.48727e-19)
(40.5782 3.21529 0)
(40.5113 3.54164 0)
(40.4396 3.88508 1.56896e-18)
(40.3461 4.25245 2.24105e-19)
(40.2369 4.63696 -1.20732e-18)
(40.1152 5.04645 -1.12798e-18)
(39.9656 5.4852 -1.32611e-18)
(39.7885 5.94473 -1.12728e-18)
(39.6521 6.49805 -4.77139e-19)
(39.4927 7.08425 -6.37786e-19)
(39.2499 7.61766 -6.48382e-19)
(39 8.1576 2.04573e-18)
(38.8149 8.79121 3.00526e-19)
(38.5991 9.47593 -2.69773e-18)
(38.3396 10.1625 2.51163e-18)
(38.1071 10.8968 1.82691e-18)
(37.8865 11.6841 -2.32766e-18)
(37.654 12.5175 3.64801e-19)
(37.4195 13.3929 -1.96416e-18)
(37.2129 14.3251 1.59917e-18)
(37.0248 15.3285 -1.3304e-18)
(36.8556 16.3831 -9.03037e-19)
(36.7242 17.5151 -1.01989e-18)
(36.6189 18.7139 0)
(36.5561 19.9852 0)
(36.5506 21.3194 -5.50171e-20)
(36.6287 22.7533 -1.28218e-20)
(36.7698 24.2446 -9.2772e-19)
(36.999 25.8837 5.78827e-19)
(37.2557 27.4933 3.09142e-18)
(37.7189 29.3546 0)
(36.0508 29.6984 -4.04795e-18)
(25.1345 22.1238 1.73155e-18)
(39.6573 -0.0261769 -5.46282e-20)
(40.3024 -0.063271 6.11212e-19)
(40.3352 0.100346 5.86178e-19)
(40.3999 0.234749 -3.77755e-22)
(40.4506 0.391691 -1.16113e-19)
(40.5144 0.551434 2.44768e-20)
(40.579 0.725657 0)
(40.6541 0.905523 0)
(40.7076 1.09834 0)
(40.7573 1.32693 6.65781e-19)
(40.7772 1.53388 -4.13043e-20)
(40.8148 1.80855 -8.11827e-19)
(40.86 2.06861 -4.73842e-19)
(40.8766 2.33376 9.39825e-19)
(40.8726 2.62831 5.37929e-19)
(40.834 2.94268 -8.75046e-20)
(40.7927 3.25876 1.68873e-18)
(40.7286 3.59599 -8.63539e-19)
(40.6732 3.94677 -1.01617e-18)
(40.5987 4.3172 0)
(40.5166 4.70963 -7.04886e-19)
(40.4115 5.12448 9.68941e-19)
(40.3081 5.55999 1.14149e-18)
(40.1962 6.02262 1.34282e-18)
(40.0736 6.49637 1.20206e-18)
(39.8753 6.94266 -1.45348e-19)
(39.7122 7.44347 -2.42996e-19)
(39.606 8.03596 -7.49949e-19)
(39.4303 8.66571 -3.24501e-19)
(39.2055 9.27718 1.27292e-18)
(39.0361 9.9202 4.23627e-19)
(38.8761 10.6367 0)
(38.674 11.383 -2.12938e-18)
(38.4667 12.1617 5.76542e-19)
(38.2914 12.9857 1.25951e-18)
(38.1363 13.8725 1.77393e-18)
(37.9972 14.8054 -9.96188e-19)
(37.8912 15.7792 -7.09878e-19)
(37.8259 16.8216 4.05438e-19)
(37.7969 17.9133 0)
(37.8101 19.06 -1.11412e-20)
(37.871 20.2718 0)
(37.9903 21.5385 0)
(38.1716 22.8627 1.08559e-18)
(38.4701 24.2473 7.03153e-19)
(38.8538 25.7432 -1.89771e-18)
(39.2882 27.2716 -1.97121e-18)
(39.7161 28.8052 0)
(37.7908 28.6571 -2.54733e-18)
(25.513 20.5421 2.77852e-18)
(39.6027 0.0143718 -5.46472e-19)
(40.4378 -0.0409288 3.91726e-21)
(40.4639 0.161714 -6.01463e-19)
(40.5296 0.291614 -5.23235e-19)
(40.5821 0.473248 -6.60023e-19)
(40.645 0.667047 -2.9672e-19)
(40.706 0.865228 -2.3193e-20)
(40.7597 1.06727 0)
(40.8285 1.28849 4.03741e-19)
(40.8669 1.4925 4.82839e-19)
(40.928 1.75766 -3.52273e-20)
(40.9448 1.9611 -4.10747e-20)
(40.9416 2.2304 -3.57697e-19)
(40.962 2.50421 -1.38112e-19)
(40.9883 2.77077 -3.77739e-20)
(40.9997 3.05687 -7.42891e-20)
(40.984 3.37174 -5.17678e-20)
(40.9766 3.70209 9.72761e-19)
(40.9245 4.06185 1.33015e-18)
(40.8757 4.4375 0)
(40.8084 4.83727 1.29065e-19)
(40.7265 5.25797 0)
(40.6354 5.70092 0)
(40.5186 6.17456 -2.70335e-19)
(40.3766 6.66961 8.48718e-19)
(40.2832 7.24921 9.74346e-19)
(40.1632 7.85357 -2.03703e-19)
(39.9726 8.41512 1.0571e-18)
(39.7888 8.99151 0)
(39.6725 9.66195 0)
(39.5285 10.3708 5.80123e-19)
(39.356 11.0686 0)
(39.2184 11.8123 5.53781e-19)
(39.1058 12.6062 8.54156e-19)
(38.9926 13.4344 -1.54544e-18)
(38.8901 14.291 -1.51268e-18)
(38.8313 15.1939 1.03983e-18)
(38.8049 16.1535 -3.86686e-19)
(38.8139 17.1444 3.13497e-19)
(38.8792 18.1934 3.63363e-19)
(38.9907 19.286 -5.79251e-19)
(39.1657 20.4227 0)
(39.4176 21.5931 0)
(39.7786 22.8309 -8.03802e-19)
(40.2188 24.0887 -1.84805e-18)
(40.7524 25.4522 -6.26029e-19)
(41.3358 26.8735 -3.51751e-18)
(41.7365 28.0538 3.88449e-18)
(39.3356 27.4309 5.67524e-18)
(25.4256 18.6611 0)
(39.5801 0.0127292 -1.62596e-21)
(40.5838 -0.0178135 3.83847e-19)
(40.6274 0.219034 4.14598e-19)
(40.6854 0.352437 5.42434e-19)
(40.7411 0.534132 0)
(40.8182 0.719088 6.6288e-20)
(40.8935 0.914415 0)
(40.966 1.12695 -2.03417e-20)
(41.0208 1.34537 -6.9146e-19)
(41.083 1.59598 -4.78812e-19)
(41.107 1.81756 2.8097e-20)
(41.1705 2.12112 3.26572e-20)
(41.2176 2.38376 -3.63e-20)
(41.2412 2.69009 -3.8501e-19)
(41.2472 3.02916 -8.30743e-19)
(41.2323 3.36942 5.62218e-20)
(41.2057 3.71645 -1.06742e-18)
(41.166 4.08474 8.17176e-20)
(41.1339 4.46368 -4.18069e-19)
(41.0833 4.86637 -2.20764e-19)
(41.0238 5.2898 7.14418e-19)
(40.9499 5.73752 0)
(40.8771 6.20501 0)
(40.8003 6.69678 -3.51141e-19)
(40.7198 7.20179 -5.54116e-19)
(40.5615 7.67017 6.08033e-19)
(40.444 8.1871 -1.58219e-19)
(40.3964 8.80058 0)
(40.2889 9.45226 2.02431e-19)
(40.1349 10.0758 -2.25482e-19)
(40.0401 10.7293 -5.89618e-19)
(39.9682 11.458 -6.2799e-19)
(39.8694 12.204 2.75083e-19)
(39.7689 12.9744 -2.33796e-19)
(39.7152 13.7804 2.60155e-19)
(39.6981 14.6369 0)
(39.7069 15.5247 -2.54968e-19)
(39.764 16.4359 3.49044e-19)
(39.8761 17.399 -1.39043e-19)
(40.0385 18.387 -2.56223e-19)
(40.2595 19.4026 6.05575e-19)
(40.541 20.4535 0)
(40.8957 21.5324 0)
(41.3137 22.6271 -1.76918e-18)
(41.8584 23.7471 3.86255e-18)
(42.4812 24.9359 1.03905e-18)
(43.1313 26.2195 2.18379e-18)
(43.2736 27.044 -4.73013e-18)
(40.1857 25.8438 4.30515e-19)
(24.7186 16.473 -7.70882e-18)
(39.5595 0.0454501 3.29145e-19)
(40.7604 0.00920487 -9.53919e-20)
(40.7983 0.304233 -4.23047e-19)
(40.888 0.413286 1.53973e-19)
(40.9194 0.635923 0)
(40.9787 0.839755 2.49173e-19)
(41.0523 1.05154 -7.02865e-21)
(41.1193 1.27942 -1.8417e-19)
(41.1938 1.52399 3.09747e-19)
(41.2357 1.75244 0)
(41.314 2.04193 2.00349e-20)
(41.329 2.27063 1.12054e-19)
(41.3489 2.57075 -1.78884e-19)
(41.3778 2.85629 2.9055e-20)
(41.429 3.13541 3.70716e-19)
(41.4516 3.45745 -3.9168e-20)
(41.4609 3.79881 3.68189e-19)
(41.4661 4.15751 -5.39269e-20)
(41.4447 4.54594 6.73301e-20)
(41.4176 4.95084 1.54717e-19)
(41.3841 5.37639 2.23918e-19)
(41.3343 5.82586 -2.57439e-21)
(41.2786 6.29707 1.24226e-19)
(41.2015 6.79702 4.96121e-19)
(41.1041 7.32274 0)
(41.0666 7.93277 -4.71628e-19)
(41.0019 8.55973 1.0529e-19)
(40.8632 9.13395 -2.33678e-21)
(40.7366 9.7206 -8.67401e-20)
(40.694 10.4051 1.36527e-19)
(40.6329 11.1187 -1.42618e-19)
(40.548 11.8069 3.87079e-19)
(40.5059 12.5365 0)
(40.5049 13.3077 0)
(40.5141 14.1018 0)
(40.544 14.9094 0)
(40.6295 15.7475 5.43131e-19)
(40.7579 16.6265 -1.0126e-18)
(40.9319 17.5133 0)
(41.1704 18.4338 4.15489e-20)
(41.4613 19.3729 -2.36854e-19)
(41.8222 20.3258 -2.50634e-18)
(42.2589 21.2779 1.37695e-18)
(42.8159 22.2658 0)
(43.4454 23.2406 1.52822e-18)
(44.1456 24.2919 -5.55996e-18)
(44.7862 25.4063 3.96522e-18)
(44.7223 25.8434 3.05797e-18)
(40.675 24.099 1.14515e-17)
(23.3278 14.0237 -8.5701e-18)
(39.5723 0.0632029 -3.24769e-19)
(40.9592 0.0229891 -4.76217e-19)
(40.9821 0.386937 3.75872e-21)
(41.0736 0.473726 -1.5498e-19)
(41.129 0.705364 7.99658e-20)
(41.2111 0.901883 -3.76123e-21)
(41.2929 1.11671 8.03534e-20)
(41.3814 1.34802 1.84908e-19)
(41.4425 1.58284 7.56497e-20)
(41.51 1.85873 -4.72844e-21)
(41.5354 2.09977 -3.60919e-20)
(41.627 2.41572 -9.73782e-20)
(41.6888 2.70999 1.53606e-19)
(41.7336 3.04044 0)
(41.7456 3.41977 0)
(41.7706 3.77571 1.00635e-20)
(41.7587 4.16422 1.65498e-19)
(41.7618 4.5576 0)
(41.7503 4.97058 1.66293e-20)
(41.7335 5.40157 -2.50128e-19)
(41.7053 5.85486 -2.49802e-19)
(41.6672 6.32935 1.6769e-20)
(41.6302 6.82294 0)
(41.5927 7.33558 -2.14267e-19)
(41.5556 7.85881 -3.78427e-20)
(41.4399 8.33923 4.22505e-20)
(41.3718 8.86798 0)
(41.3887 9.48921 0)
(41.3573 10.142 -2.17763e-19)
(41.2727 10.7556 9.25804e-20)
(41.2477 11.3948 1.3992e-19)
(41.2615 12.1094 5.29763e-21)
(41.2649 12.827 9.6505e-20)
(41.2662 13.5572 -2.83899e-19)
(41.324 14.3086 7.0285e-19)
(41.431 15.0972 3.59804e-19)
(41.5693 15.9023 -3.98287e-19)
(41.7634 16.7078 6.26698e-19)
(42.0172 17.5471 -1.34543e-18)
(42.3232 18.3876 5.487e-20)
(42.6911 19.2274 -2.87191e-19)
(43.1174 20.0732 1.29602e-18)
(43.6207 20.9249 2.1128e-18)
(44.1699 21.7532 -2.34703e-18)
(44.833 22.5843 1.52276e-18)
(45.5738 23.5248 0)
(46.0589 24.2924 2.46794e-18)
(45.4986 24.4409 3.85129e-18)
(40.1694 21.991 -7.83376e-18)
(21.0746 11.3326 -2.40509e-18)
(39.6162 0.083384 1.29545e-19)
(41.1696 0.037746 1.85599e-19)
(41.2131 0.436909 1.10659e-21)
(41.2947 0.531682 -1.09429e-20)
(41.3467 0.801139 -8.35768e-20)
(41.4101 1.02615 -1.56282e-20)
(41.4872 1.25086 -4.39647e-20)
(41.5654 1.48409 -2.57938e-20)
(41.6625 1.7394 -7.16743e-20)
(41.7188 1.99404 4.70193e-20)
(41.8092 2.30414 -2.39619e-20)
(41.8397 2.57272 -3.60685e-20)
(41.89 2.8819 8.78466e-20)
(41.9288 3.18674 1.21947e-22)
(42.012 3.4683 5.94408e-20)
(42.042 3.83312 -7.16565e-20)
(42.0948 4.18692 -3.63178e-20)
(42.1156 4.58114 0)
(42.1348 4.99153 0)
(42.1377 5.42463 0)
(42.143 5.87356 4.32839e-21)
(42.1316 6.34564 -4.76264e-20)
(42.1167 6.83736 1.00841e-19)
(42.0857 7.35513 7.9866e-21)
(42.0352 7.89881 0)
(42.055 8.52395 0)
(42.0534 9.165 -1.3039e-19)
(41.9709 9.75084 4.6455e-20)
(41.8998 10.3374 -1.00071e-19)
(41.9297 11.0133 1.18329e-19)
(41.9492 11.7051 3.2493e-20)
(41.9438 12.356 3.63689e-19)
(41.984 13.0421 -1.44244e-19)
(42.0795 13.7568 6.2775e-19)
(42.1928 14.4834 -3.67653e-19)
(42.328 15.2061 -1.53904e-19)
(42.5234 15.9392 1.54872e-19)
(42.7636 16.6991 5.95206e-19)
(43.0492 17.4431 5.64195e-19)
(43.3961 18.1957 9.92361e-19)
(43.7889 18.9473 -2.65536e-19)
(44.2482 19.69 1.95136e-18)
(44.7659 20.3993 -2.17047e-18)
(45.4071 21.1199 0)
(46.1098 21.8206 0)
(46.8643 22.6538 0)
(47.0971 23.0731 0)
(45.9989 22.899 0)
(39.1321 19.77 -4.48023e-18)
(17.9338 8.50877 7.36008e-18)
(39.6868 0.104087 -1.30093e-19)
(41.4088 0.0405869 0)
(41.4648 0.466026 0)
(41.548 0.560834 1.04246e-20)
(41.6117 0.851879 -9.69013e-23)
(41.7051 1.04917 1.88836e-20)
(41.7834 1.28258 -3.61341e-20)
(41.8751 1.5483 2.5876e-20)
(41.9617 1.78911 -1.15242e-19)
(42.0512 2.08466 -5.27555e-20)
(42.1118 2.34936 5.88258e-20)
(42.2083 2.66359 -1.89021e-19)
(42.2913 2.99818 -2.04515e-19)
(42.375 3.35504 0)
(42.4048 3.77479 -6.15286e-20)
(42.4817 4.13518 8.8247e-20)
(42.4956 4.56359 8.17259e-22)
(42.5387 4.97535 2.56747e-19)
(42.5605 5.41871 -3.23059e-19)
(42.584 5.87425 0)
(42.5953 6.35483 0)
(42.5967 6.85213 -2.3934e-19)
(42.5995 7.36431 1.73218e-19)
(42.6021 7.89282 3.34288e-19)
(42.6069 8.42613 7.26005e-20)
(42.5367 8.91429 -3.21337e-19)
(42.5092 9.43317 4.22987e-19)
(42.5809 10.0351 -4.96237e-19)
(42.625 10.6745 2.44505e-19)
(42.6089 11.2673 -2.12306e-19)
(42.6444 11.8726 1.26573e-19)
(42.7288 12.5458 -3.42313e-19)
(42.8168 13.2072 3.36849e-19)
(42.8974 13.8686 -4.73247e-19)
(43.0333 14.5333 0)
(43.2252 15.2222 -5.28981e-19)
(43.4471 15.9151 -5.0636e-19)
(43.7225 16.5837 1.5597e-19)
(44.0526 17.2695 1.27567e-18)
(44.4271 17.9396 -1.24368e-18)
(44.8589 18.5854 -2.37481e-19)
(45.3368 19.2121 -2.25853e-18)
(45.8959 19.8348 5.34135e-18)
(46.4763 20.4073 3.76078e-19)
(47.1626 21.0022 4.39119e-19)
(47.7551 21.5849 -2.11328e-18)
(47.7332 21.7419 0)
(45.6154 21.133 3.98976e-18)
(36.673 17.1294 -2.13033e-18)
(13.7202 5.54918 0)
(39.7713 0.123236 -3.36383e-22)
(41.6389 0.054602 -1.50682e-22)
(41.7222 0.511977 1.20936e-19)
(41.8198 0.589048 0)
(41.8498 0.922507 2.35698e-21)
(41.9342 1.1366 1.15278e-19)
(42.0356 1.3935 0)
(42.1213 1.63895 -1.70176e-19)
(42.2242 1.92873 1.25758e-19)
(42.3146 2.18858 -1.13343e-20)
(42.4054 2.49958 -2.83439e-19)
(42.4899 2.81174 1.36836e-20)
(42.5652 3.11691 1.35846e-19)
(42.6354 3.43467 0)
(42.744 3.73633 0)
(42.8049 4.13177 0)
(42.893 4.4991 3.33128e-19)
(42.9444 4.92024 -2.59044e-19)
(43.0069 5.34777 6.01249e-19)
(43.0494 5.80454 -5.95805e-20)
(43.0949 6.2737 1.36293e-19)
(43.1264 6.7633 1.62992e-19)
(43.1553 7.26894 -7.56577e-19)
(43.1705 7.79763 -6.14574e-19)
(43.1674 8.34853 0)
(43.2393 8.97481 3.23542e-19)
(43.2987 9.62124 -8.48491e-19)
(43.2684 10.208 4.79061e-19)
(43.2389 10.7725 -2.79202e-19)
(43.323 11.4156 1.63063e-19)
(43.4088 12.0683 -2.22629e-19)
(43.4655 12.6658 8.55531e-19)
(43.5597 13.2862 -8.99144e-19)
(43.716 13.9201 1.30629e-18)
(43.896 14.5579 5.41209e-19)
(44.091 15.175 -1.28218e-18)
(44.3431 15.7807 1.6281e-18)
(44.6338 16.4042 -1.06072e-18)
(44.9618 16.993 3.23576e-20)
(45.3423 17.5665 0)
(45.7547 18.1262 1.81853e-18)
(46.2306 18.6682 1.26144e-18)
(46.7364 19.1479 1.47931e-19)
(47.3684 19.6345 -3.61566e-18)
(48.1051 20.1781 -1.27613e-19)
(48.3921 20.4193 -2.53888e-18)
(47.9587 20.3185 0)
(44.6332 19.1188 4.11122e-18)
(33.4801 14.2755 -6.91349e-18)
(8.51193 2.47422 0)
(39.8713 0.141887 0)
(41.9237 0.0589075 0)
(41.9895 0.552878 -1.98112e-20)
(42.0955 0.589815 6.35382e-21)
(42.1555 0.922948 -1.52876e-19)
(42.2589 1.14128 -1.18138e-19)
(42.3671 1.38006 0)
(42.4828 1.66391 1.70567e-19)
(42.5744 1.90352 -2.95676e-19)
(42.6902 2.21751 0)
(42.8075 2.5 4.89722e-19)
(42.905 2.81333 -7.4446e-20)
(43.0439 3.18377 3.07121e-20)
(43.1512 3.5756 -3.42416e-20)
(43.2372 4.00555 0)
(43.3518 4.38857 0)
(43.4173 4.84088 -1.33055e-19)
(43.4986 5.27201 -2.80588e-19)
(43.5612 5.74106 1.11403e-19)
(43.6234 6.21802 -4.5906e-20)
(43.6779 6.71633 1.04902e-19)
(43.7207 7.23217 -5.99075e-20)
(43.7606 7.75959 4.75235e-19)
(43.7987 8.29809 1.93112e-19)
(43.8381 8.83533 -3.68182e-19)
(43.8116 9.32874 -5.46408e-19)
(43.8132 9.8255 3.23669e-19)
(43.9177 10.389 5.41589e-19)
(44.0232 11.0016 0)
(44.0618 11.5612 0)
(44.1316 12.1141 0)
(44.2544 12.7272 -6.12399e-19)
(44.3939 13.3198 -4.45265e-19)
(44.5194 13.9 -4.32231e-19)
(44.6877 14.4644 6.91456e-19)
(44.9138 15.041 8.40069e-19)
(45.1637 15.6159 -3.62171e-19)
(45.459 16.1439 1.17599e-18)
(45.7989 16.6737 -6.87041e-19)
(46.1687 17.1802 -9.16612e-19)
(46.5913 17.6481 -1.12516e-18)
(47.0398 18.071 1.25454e-18)
(47.5825 18.4963 0)
(48.1657 18.9063 1.94168e-18)
(48.6404 19.1975 -1.03371e-18)
(48.6766 19.2286 1.33599e-18)
(47.52 18.7729 0)
(42.4136 16.7619 -1.97515e-18)
(28.5888 10.7964 1.14242e-18)
(4.9757 0.520017 0)
(39.9893 0.162377 -1.06624e-19)
(42.2124 0.0828626 0)
(42.2778 0.573906 -2.51907e-19)
(42.3562 0.617727 1.76618e-19)
(42.4298 0.962284 1.494e-19)
(42.5174 1.17461 -6.75715e-21)
(42.6276 1.43597 7.52019e-21)
(42.7375 1.6711 0)
(42.8984 1.9948 2.85181e-19)
(43.0049 2.25795 -2.19882e-19)
(43.1172 2.58165 -2.05951e-19)
(43.2643 2.90981 2.60595e-19)
(43.3506 3.20517 -1.87955e-19)
(43.4924 3.52867 -4.84987e-20)
(43.6145 3.87751 2.77266e-20)
(43.7133 4.27686 0)
(43.842 4.66607 -3.08459e-19)
(43.9381 5.10734 3.58327e-19)
(44.0416 5.55321 6.5055e-20)
(44.1287 6.02671 -2.67627e-21)
(44.2134 6.51392 7.0673e-20)
(44.2833 7.02018 0)
(44.3534 7.53603 1.00376e-19)
(44.41 8.07042 4.08552e-19)
(44.4489 8.62186 4.67282e-19)
(44.5578 9.23652 5.49356e-19)
(44.6692 9.88295 0)
(44.6839 10.4674 -3.83661e-19)
(44.6711 10.9971 -8.38006e-19)
(44.773 11.5899 4.5449e-19)
(44.8948 12.195 -9.75756e-19)
(44.9841 12.7334 -4.74417e-19)
(45.0945 13.2785 8.35352e-19)
(45.2656 13.825 -3.02488e-19)
(45.4683 14.3716 -6.9741e-19)
(45.675 14.8861 -3.56202e-19)
(45.9307 15.3662 -5.01813e-19)
(46.2146 15.8605 0)
(46.5226 16.311 -8.33468e-19)
(46.8752 16.7242 1.84847e-18)
(47.2398 17.1112 1.13843e-18)
(47.6743 17.4902 -1.34899e-18)
(48.1164 17.8026 1.71406e-18)
(48.7129 18.1441 -8.71874e-19)
(48.9115 18.2272 2.26026e-18)
(48.5882 18.0526 -8.26908e-21)
(46.2476 17.0721 0)
(38.9844 14.0855 4.00968e-18)
(22.8792 7.18892 -3.38029e-18)
(2.49192 -0.226743 -1.20632e-18)
(40.1517 0.160178 1.06739e-19)
(42.5117 0.0653113 -1.69767e-19)
(42.5633 0.547948 1.47138e-19)
(42.6507 0.589649 -1.73582e-19)
(42.7462 0.922815 -1.30913e-19)
(42.8729 1.10182 -8.58434e-21)
(42.9812 1.3616 4.907e-21)
(43.1418 1.64689 0)
(43.2473 1.86109 -2.34149e-19)
(43.4233 2.18803 3.62818e-19)
(43.5672 2.47013 0)
(43.712 2.81043 -2.32839e-20)
(43.9103 3.21111 4.71135e-21)
(44.0374 3.61928 2.49079e-19)
(44.1953 4.03197 -3.65843e-19)
(44.3563 4.44826 -2.05411e-21)
(44.4872 4.92183 4.91335e-20)
(44.607 5.37966 0)
(44.7192 5.8681 -1.80612e-19)
(44.822 6.36779 3.97626e-19)
(44.9134 6.88449 -4.55892e-20)
(44.9947 7.41408 0)
(45.068 7.9559 0)
(45.1318 8.50498 -1.97633e-19)
(45.1928 9.04415 8.70782e-20)
(45.1985 9.54263 -6.37195e-19)
(45.2057 10.0152 2.31942e-19)
(45.3109 10.5357 -1.32479e-19)
(45.4539 11.1217 4.12801e-19)
(45.5269 11.6489 1.81793e-19)
(45.5965 12.1414 5.5588e-19)
(45.7146 12.6875 -5.96654e-19)
(45.8645 13.2127 3.8335e-19)
(45.9993 13.7167 -3.85354e-19)
(46.1566 14.1877 -4.46167e-19)
(46.3699 14.6581 -4.72889e-19)
(46.5985 15.1312 0)
(46.8608 15.5405 1.13361e-18)
(47.1589 15.9338 -4.21719e-19)
(47.4668 16.305 -1.00422e-18)
(47.8306 16.6403 1.19277e-18)
(48.1928 16.9066 -3.02963e-20)
(48.7453 17.243 -8.45478e-19)
(48.9908 17.3677 -2.02943e-20)
(48.9039 17.3078 -1.20926e-18)
(47.7911 16.8234 -2.88319e-18)
(43.8166 15.2762 1.61856e-18)
(33.7551 11.392 0)
(14.0118 3.58302 -2.13981e-18)
(0.340672 -0.232688 4.12253e-18)
(40.2449 0.141888 3.28595e-22)
(42.7865 0.0145751 1.70692e-19)
(42.8539 0.498086 -5.77513e-20)
(42.9329 0.549944 -1.92514e-21)
(43.0043 0.904219 1.31178e-19)
(43.129 1.05826 0)
(43.2667 1.33229 0)
(43.4046 1.57771 -7.50655e-21)
(43.6088 1.90143 4.07236e-19)
(43.7525 2.14719 -1.46345e-19)
(43.9325 2.4898 1.22378e-20)
(44.0925 2.79259 -2.80275e-20)
(44.2368 3.09284 1.26985e-19)
(44.442 3.42693 -1.29225e-19)
(44.5898 3.81925 5.27792e-19)
(44.7267 4.21681 -1.1677e-19)
(44.9049 4.62466 1.36645e-19)
(45.0526 5.07865 3.71796e-20)
(45.2006 5.54825 -3.91722e-19)
(45.3309 6.04294 -2.58715e-19)
(45.4548 6.54831 2.23262e-21)
(45.5621 7.0739 -6.54174e-20)
(45.6632 7.6065 0)
(45.7512 8.14964 -2.80196e-19)
(45.821 8.7041 1.81991e-21)
(45.9427 9.3056 5.76009e-20)
(46.0872 9.94835 6.84888e-20)
(46.1307 10.5361 1.74601e-19)
(46.1078 11.0364 0)
(46.1861 11.5791 1.11667e-19)
(46.3064 12.1439 6.21285e-19)
(46.3973 12.6304 5.57279e-19)
(46.4873 13.1043 -2.87975e-19)
(46.6279 13.5693 5.96893e-19)
(46.8127 14.0363 -4.86057e-19)
(46.9908 14.4707 -2.9417e-19)
(47.2081 14.8459 0)
(47.4443 15.233 -7.59715e-19)
(47.6856 15.5822 -4.76488e-19)
(47.9722 15.8805 5.32225e-19)
(48.2431 16.134 -6.308e-19)
(48.661 16.4518 7.14332e-19)
(48.9206 16.6214 0)
(48.9423 16.6366 4.85097e-19)
(48.4448 16.4325 0)
(46.1818 15.5927 7.08778e-19)
(39.828 13.2939 -1.59832e-18)
(26.1157 8.28546 8.96911e-19)
(6.43455 1.31713 0)
(-0.977159 -0.0910723 2.67894e-19)
(40.3381 0.152592 5.00125e-23)
(43.0272 -0.0017703 5.79016e-23)
(43.1426 0.451778 5.93704e-20)
(43.2444 0.466773 3.001e-22)
(43.3205 0.795224 2.58772e-21)
(43.4822 0.95689 4.0647e-22)
(43.631 1.17762 -4.52445e-22)
(43.7827 1.43653 1.11468e-21)
(43.948 1.65915 -1.51478e-19)
(44.1649 1.9626 -3.23401e-21)
(44.3564 2.24646 -1.81852e-21)
(44.5875 2.60367 4.17012e-21)
(44.8076 3.00533 1.41921e-19)
(44.9966 3.41627 -1.69704e-19)
(45.2148 3.8098 -2.10103e-19)
(45.443 4.2656 1.16651e-19)
(45.6365 4.75374 -1.32191e-19)
(45.8137 5.24402 -5.89086e-21)
(45.9774 5.75456 -6.87252e-21)
(46.1264 6.27691 0)
(46.2562 6.81981 -9.28648e-21)
(46.3698 7.37397 -5.05825e-21)
(46.4681 7.93534 5.65476e-21)
(46.5495 8.50267 0)
(46.619 9.05736 0)
(46.6407 9.57191 2.5235e-19)
(46.6262 10.0354 0)
(46.6926 10.5184 -1.74829e-19)
(46.8366 11.0825 0)
(46.9213 11.5924 8.28244e-21)
(46.9626 12.0353 -2.90396e-19)
(47.0355 12.5225 2.05593e-20)
(47.1562 12.9919 -3.9332e-19)
(47.2704 13.438 3.50038e-20)
(47.3834 13.8362 2.18143e-19)
(47.5488 14.2158 3.32221e-19)
(47.7223 14.6134 -1.14602e-20)
(47.914 14.9434 0)
(48.1432 15.2355 -7.74035e-21)
(48.355 15.5085 8.99272e-21)
(48.6721 15.8042 0)
(48.9596 16.0235 -1.10861e-20)
(49.0309 16.0675 -5.33727e-20)
(48.8227 16.0282 -4.53965e-19)
(47.4019 15.5679 -9.25907e-21)
(43.1727 14.1248 0)
(33.4557 10.7296 0)
(15.9208 4.49962 1.22686e-19)
(2.16495 0.443447 -1.21464e-19)
(-1.5822 -0.039134 2.73077e-19)
(40.4541 0.109068 1.25676e-19)
(43.2471 -0.0134815 1.40318e-19)
(43.3911 0.418876 7.84047e-20)
(43.4808 0.387135 9.33442e-20)
(43.5496 0.710549 9.98715e-20)
(43.6854 0.830348 -1.20184e-19)
(43.8836 1.07964 0)
(44.0622 1.30054 0)
(44.281 1.57827 9.99813e-20)
(44.4933 1.85038 3.2336e-21)
(44.7267 2.14048 -1.30897e-19)
(44.9182 2.43605 -9.40249e-21)
(45.1524 2.7322 -1.82704e-19)
(45.4074 3.08694 2.16259e-19)
(45.6223 3.50391 2.77432e-19)
(45.8105 3.89271 0)
(46.0367 4.32498 0)
(46.2227 4.79225 5.897e-21)
(46.4263 5.28572 6.87596e-21)
(46.607 5.81132 -2.9567e-19)
(46.7712 6.34909 9.28438e-21)
(46.9182 6.90277 0)
(47.0492 7.46386 0)
(47.1577 8.03377 -6.25108e-20)
(47.2434 8.60797 -3.05146e-19)
(47.3552 9.21165 8.98819e-20)
(47.5065 9.86373 0)
(47.5624 10.4751 -2.26714e-19)
(47.509 10.9678 0)
(47.5199 11.4699 -8.27966e-21)
(47.5939 12.0079 0)
(47.6572 12.4622 0)
(47.7014 12.8845 1.07575e-19)
(47.7764 13.2815 1.25041e-19)
(47.912 13.6831 0)
(48.0339 14.0681 0)
(48.1854 14.3697 1.14537e-20)
(48.3581 14.6724 0)
(48.5096 14.9593 7.73515e-21)
(48.7441 15.2236 -2.9925e-19)
(48.9939 15.4658 3.17965e-19)
(49.0604 15.5564 2.31993e-20)
(48.941 15.6064 1.37266e-20)
(48.0017 15.3647 -5.07214e-19)
(45.1217 14.4361 -2.92317e-19)
(38.1407 12.0987 1.66871e-18)
(24.578 7.50484 -7.47894e-19)
(6.5747 1.68107 -8.5715e-19)
(-0.693396 0.201844 7.08e-19)
(-1.81895 -0.0319544 0)
(40.4542 0.0258731 -1.24314e-19)
(43.4439 -0.0734419 1.66936e-19)
(43.5587 0.292219 -7.69698e-20)
(43.6802 0.221184 1.10607e-19)
(43.8094 0.517006 -1.05946e-19)
(43.9866 0.639567 1.23684e-19)
(44.1506 0.817137 9.82614e-21)
(44.3945 1.04285 -1.09404e-20)
(44.6024 1.2535 -8.62877e-20)
(44.8343 1.50347 -1.51844e-20)
(45.1075 1.81121 1.39232e-19)
(45.4224 2.1455 3.68083e-19)
(45.6839 2.5479 -2.41546e-19)
(45.9432 2.92239 -1.97761e-19)
(46.2215 3.3188 -9.13511e-19)
(46.5351 3.81076 4.33892e-20)
(46.7833 4.29902 -4.84308e-20)
(47.025 4.81454 4.93626e-19)
(47.2696 5.35258 6.92545e-20)
(47.4885 5.9161 2.1802e-19)
(47.6617 6.49601 0)
(47.8138 7.09219 0)
(47.9346 7.69898 0)
(48.0273 8.30554 0)
(48.096 8.90039 3.0276e-19)
(48.1216 9.46074 -7.81781e-19)
(48.0715 9.94933 0)
(48.0642 10.4162 7.31605e-19)
(48.1614 10.9725 0)
(48.2294 11.492 0)
(48.2197 11.9092 -7.34879e-19)
(48.2123 12.35 4.04396e-19)
(48.2629 12.7738 -9.13803e-19)
(48.3324 13.1833 2.64098e-19)
(48.3803 13.5368 0)
(48.478 13.8396 0)
(48.5875 14.1776 3.98368e-19)
(48.6909 14.4692 -1.36258e-18)
(48.8689 14.7139 0)
(49.07 14.9854 -8.93983e-19)
(49.1464 15.1509 1.33652e-18)
(49.1053 15.2266 -1.56959e-18)
(48.4854 15.1214 8.86691e-19)
(46.4999 14.531 -1.03396e-18)
(41.2558 12.8719 2.61262e-18)
(30.3584 9.34878 -2.29218e-18)
(12.279 3.48995 1.4763e-18)
(1.54462 0.720483 -3.28777e-18)
(-2.01114 0.194275 3.88363e-18)
(-1.72788 0.0769357 -2.50565e-18)
(40.3881 -0.0134456 -2.92855e-19)
(43.6106 -0.153458 2.25189e-20)
(43.714 0.161146 0)
(43.8201 0.0825944 -2.02408e-19)
(43.9702 0.359054 -5.17676e-19)
(44.1221 0.425693 1.73735e-20)
(44.3545 0.672214 0)
(44.5861 0.827771 0)
(44.8618 1.06121 -3.00279e-20)
(45.1476 1.30616 3.34503e-20)
(45.4001 1.53259 -6.79636e-19)
(45.6531 1.81516 4.39303e-19)
(45.9812 2.09982 4.35177e-19)
(46.315 2.47716 -5.68012e-19)
(46.6166 2.89698 6.07672e-19)
(46.8694 3.27158 9.72094e-20)
(47.1573 3.71974 -1.04525e-18)
(47.4254 4.21186 -1.5932e-18)
(47.6783 4.74158 0)
(47.9058 5.30216 7.50687e-19)
(48.1248 5.8839 8.71762e-19)
(48.3181 6.49066 0)
(48.4834 7.10371 -1.16368e-18)
(48.616 7.72603 0)
(48.7155 8.3516 0)
(48.7983 8.98812 7.79389e-19)
(48.9313 9.67716 5.1612e-19)
(48.9876 10.3519 1.13917e-18)
(48.9011 10.8846 0)
(48.8098 11.368 0)
(48.784 11.8935 3.4848e-19)
(48.7818 12.3392 4.28722e-19)
(48.7624 12.737 1.49498e-18)
(48.743 13.0781 7.73945e-21)
(48.804 13.4124 1.04258e-20)
(48.8582 13.766 -1.42525e-18)
(48.9274 14.027 -1.71783e-20)
(49.0594 14.2607 1.82933e-18)
(49.1806 14.5296 1.0503e-18)
(49.2915 14.768 5.50632e-19)
(49.2962 14.8484 1.30724e-18)
(48.8304 14.8277 3.15421e-20)
(47.352 14.4722 -1.77379e-18)
(43.1995 13.2388 -1.01809e-18)
(34.1883 10.4199 -2.87545e-18)
(18.4002 5.39061 3.21971e-18)
(4.2325 1.38564 -1.43533e-18)
(-1.18375 0.494817 0)
(-2.5152 0.258585 0)
(-1.55989 0.159684 4.93023e-19)
(40.2583 -0.0461413 8.99894e-19)
(43.6891 -0.224026 3.62028e-19)
(43.7919 0.00822079 -3.93364e-19)
(43.9526 -0.0625764 1.42693e-20)
(44.1249 0.115265 1.0292e-18)
(44.3446 0.163336 -1.84884e-20)
(44.5237 0.30695 0)
(44.7947 0.471489 -8.63726e-19)
(45.0778 0.628155 -3.22736e-20)
(45.3804 0.851071 -2.41893e-21)
(45.73 1.14651 1.44877e-18)
(46.1152 1.43233 -7.51014e-19)
(46.4342 1.79396 3.95835e-21)
(46.77 2.12928 4.94876e-19)
(47.1361 2.5309 0)
(47.5345 3.03809 0)
(47.8721 3.53204 8.08207e-19)
(48.2058 4.07188 1.23798e-18)
(48.5254 4.64357 0)
(48.8396 5.24661 -7.48299e-19)
(49.1001 5.88408 -8.68822e-19)
(49.3033 6.54404 -2.69619e-19)
(49.4638 7.22327 1.71937e-19)
(49.5792 7.90829 1.12441e-18)
(49.6485 8.58642 3.96899e-19)
(49.669 9.23448 4.59625e-19)
(49.5849 9.79939 -1.49635e-18)
(49.4841 10.2929 -1.10934e-18)
(49.4855 10.8679 1.37278e-18)
(49.4989 11.4401 -1.53427e-18)
(49.4254 11.8759 0)
(49.3127 12.2913 0)
(49.2418 12.6684 3.37584e-20)
(49.2332 13.0449 -1.15369e-18)
(49.198 13.3765 1.32924e-18)
(49.2065 13.6069 2.23539e-18)
(49.2717 13.8626 -8.26887e-19)
(49.3226 14.1392 -1.88558e-18)
(49.4544 14.4036 -1.99481e-18)
(49.4772 14.5042 -1.15845e-18)
(49.1062 14.5109 -2.47347e-20)
(47.9251 14.3367 1.55264e-18)
(44.5951 13.419 0)
(37.0945 11.1316 1.0081e-18)
(23.2039 6.79898 1.1325e-18)
(7.1393 2.14996 1.25955e-18)
(0.0756678 0.73425 4.23437e-18)
(-2.30893 0.397333 -1.57781e-18)
(-2.55635 0.321268 0)
(-1.32868 0.19315 0)
(40.0583 -0.0509386 3.9306e-21)
(43.6686 -0.312296 -6.90369e-19)
(43.8523 -0.103305 4.05518e-19)
(43.9879 -0.202445 -9.31422e-19)
(44.1233 -0.0258093 -5.59865e-19)
(44.3698 -0.091838 -1.13905e-21)
(44.6354 0.102455 2.26631e-20)
(44.8897 0.210779 8.04771e-19)
(45.2284 0.380669 6.36752e-20)
(45.563 0.539457 8.12335e-20)
(45.8808 0.723797 -7.19415e-19)
(46.2132 0.970502 -1.08047e-19)
(46.6371 1.23101 -1.0951e-18)
(47.0533 1.59369 -1.30906e-18)
(47.4364 1.96486 1.95654e-19)
(47.7944 2.33533 -2.1824e-19)
(48.1797 2.79997 0)
(48.5601 3.31682 -1.30718e-18)
(48.8999 3.87796 0)
(49.1951 4.48268 0)
(49.4718 5.12312 0)
(49.7347 5.80095 -5.9372e-19)
(49.9564 6.49498 1.94505e-18)
(50.1297 7.20664 -1.47107e-18)
(50.2537 7.92237 0)
(50.3258 8.63822 -5.0489e-19)
(50.4284 9.4041 -1.81991e-18)
(50.4915 10.1963 -2.67387e-18)
(50.3642 10.8427 -2.07518e-18)
(50.1611 11.3557 1.45062e-18)
(49.9778 11.8915 -1.7635e-18)
(49.8513 12.3538 9.81912e-19)
(49.74 12.7628 2.23804e-18)
(49.591 13.0656 0)
(49.5331 13.3033 1.42538e-18)
(49.5171 13.5923 -2.99255e-18)
(49.5049 13.8327 -2.47386e-20)
(49.6362 14.0514 1.77143e-18)
(49.6446 14.1537 1.01e-18)
(49.3433 14.1835 0)
(48.3885 14.1177 1.38361e-18)
(45.75 13.4855 -1.58948e-18)
(39.3941 11.6133 3.57243e-18)
(26.7241 7.80593 0)
(9.67971 2.96577 -4.46336e-18)
(1.5641 1.19522 1.23656e-18)
(-1.72304 0.770854 -1.38599e-18)
(-2.72369 0.647007 -1.55167e-18)
(-2.40169 0.507274 3.44799e-18)
(-1.10091 0.226258 1.35761e-21)
(39.7778 -0.0588696 -6.15776e-19)
(43.5852 -0.439281 6.9583e-19)
(43.8391 -0.260434 -7.99078e-19)
(43.98 -0.409847 1.86217e-18)
(44.1188 -0.266459 -1.12398e-18)
(44.4072 -0.355057 8.0725e-20)
(44.6633 -0.293303 -8.09968e-19)
(44.9857 -0.205554 0)
(45.2989 -0.106919 -1.09356e-18)
(45.6728 0.0664488 1.39619e-18)
(46.1038 0.279411 7.23397e-21)
(46.5488 0.498446 -1.12773e-19)
(46.9471 0.796634 1.09143e-18)
(47.3715 1.08587 -6.62105e-20)
(47.862 1.47937 1.43617e-18)
(48.3464 1.96094 2.31899e-19)
(48.8015 2.44571 0)
(49.2506 2.99562 1.30132e-18)
(49.6805 3.59286 3.30529e-18)
(50.1042 4.24033 0)
(50.4801 4.93879 0)
(50.8107 5.67412 0)
(51.0482 6.45332 -2.32716e-18)