/*--------------------------------*- C++ -*----------------------------------*\
| =========                 |                                                 |
| \\      /  F ield         | OpenFOAM: The Open Source CFD Toolbox           |
|  \\    /   O peration     | Version:  v1912                                 |
|   \\  /    A nd           | Website:  www.openfoam.com                      |
|    \\/     M anipulation  |                                                 |
\*---------------------------------------------------------------------------*/
FoamFile
{
    version     2.0;
    format      ascii;
    class       volScalarField;
    location    "0.31";
    object      p;
}
// * * * * * * * * * * * * * * * * * * * * * * * * * * * * * * * * * * * * * //

dimensions      [0 2 -2 0 0 0 0];


internalField   nonuniform List<scalar> 
6600
(
101.583
96.9691
94.6808
93.1828
92.2537
91.6761
91.0439
90.3936
89.8308
89.3466
89.0023
88.7494
88.5036
88.1821
87.8208
87.4217
87.0088
86.5683
85.9276
85.2534
84.7882
84.1309
83.02
81.6935
80.1846
78.4701
76.5001
74.1013
71.1014
67.4342
62.9973
57.5658
50.9104
42.7894
32.885
20.8529
6.22374
-11.4551
-32.6669
-57.9929
-88.0002
-123.363
-164.933
-213.721
-270.454
-336.009
-410.637
-494.81
-592.539
-699.304
98.611
93.699
92.0685
90.3376
89.0177
88.0321
87.0643
86.1481
85.3136
84.5681
83.909
83.2833
82.619
81.8492
80.9941
80.0401
79.0057
77.9056
76.5289
74.944
73.4224
71.8494
69.7876
67.2961
64.4943
61.3909
57.8743
53.7747
48.9328
43.2102
36.4719
28.5285
19.1453
8.06827
-5.06321
-20.6231
-39.0882
-60.9485
-86.6777
-116.895
-152.244
-193.349
-241.092
-296.405
-360.064
-433.141
-515.506
-607.141
-710.497
-821.67
94.4182
89.3058
88.3482
86.4441
84.9292
83.629
82.3552
81.1641
80.0801
78.9758
77.889
76.8419
75.7131
74.4551
73.0727
71.5343
69.8072
67.9789
65.8371
63.3765
60.8821
58.2217
54.974
51.2083
47.0614
42.5183
37.3533
31.3713
24.443
16.4826
7.30448
-3.34081
-15.6898
-30.0083
-46.6642
-65.9997
-88.5925
-114.871
-145.353
-180.694
-221.524
-268.487
-322.285
-383.861
-454.026
-533.78
-622.979
-720.652
-826.158
-935.58
89.5023
84.2661
83.8288
81.5218
79.9186
78.4005
76.8576
75.3828
73.9533
72.5264
71.0014
69.4351
67.7767
65.9624
63.9888
61.8247
59.3667
56.7423
53.8786
50.4696
46.8619
43.0137
38.5439
33.4419
27.7532
21.468
14.4058
6.40245
-2.69511
-13.0385
-24.8195
-38.2845
-53.7281
-71.4358
-91.8026
-115.195
-142.072
-172.947
-208.299
-248.734
-294.931
-347.545
-407.111
-474.293
-549.906
-635.003
-729.371
-830.87
-936.707
-1041.83
84.0751
78.5893
78.49
75.7516
74.1581
72.4754
70.7124
68.9713
67.2491
65.4001
63.4241
61.3552
59.1436
56.7155
54.0591
51.1533
47.8913
44.3074
40.5264
36.3496
31.5785
26.2464
20.3045
13.7662
6.55291
-1.46685
-10.4979
-20.7231
-32.2345
-45.1479
-59.7066
-76.1782
-94.8471
-116.054
-140.181
-167.647
-198.822
-234.171
-274.228
-319.547
-370.687
-428.22
-492.644
-564.506
-644.412
-733.267
-830.839
-934.586
-1039.56
-1138.83
78.084
72.5453
72.4383
69.3066
67.7792
65.9208
63.9477
61.9226
59.8614
57.68
55.3437
52.7844
49.9946
46.9208
43.5407
39.8426
35.7706
31.302
26.3304
20.905
15.0151
8.41002
0.920171
-7.3374
-16.4096
-26.4507
-37.6348
-50.0865
-63.9603
-79.4954
-96.9169
-116.464
-138.43
-163.13
-190.954
-222.29
-257.555
-297.143
-341.49
-391.108
-446.513
-508.189
-576.473
-651.695
-734.335
-825.222
-924.319
-1028.95
-1132.05
-1223.69
71.5988
65.9762
65.8908
62.4808
60.9085
58.8552
56.6899
54.4563
52.0678
49.4811
46.7398
43.6947
40.3226
36.5773
32.414
27.8312
22.7803
17.2839
11.3297
4.6666
-2.74771
-10.9355
-19.9515
-29.8762
-40.7769
-52.7882
-66.1239
-80.9479
-97.3942
-115.647
-135.964
-158.605
-183.828
-211.933
-243.278
-278.243
-317.156
-360.427
-408.47
-461.682
-520.44
-585.11
-656.015
-733.396
-817.49
-908.957
-1008.09
-1112.32
-1212.1
-1293.71
64.6825
59.0353
58.7656
55.3216
53.6393
51.3126
48.9273
46.4231
43.7458
40.8106
37.5498
33.9627
29.973
25.5362
20.6512
15.2609
9.29546
2.59755
-4.75456
-12.8304
-21.6377
-31.269
-41.9934
-53.7767
-66.696
-80.8965
-96.4924
-113.611
-132.472
-153.346
-176.434
-201.969
-230.216
-261.46
-295.981
-334.109
-376.207
-422.573
-473.545
-529.47
-590.657
-657.387
-729.801
-808.043
-892.347
-983.227
-1080.92
-1183
-1277.91
-1347.61
56.7065
51.834
51.1992
47.7535
46.0039
43.4866
40.8715
38.0726
34.9736
31.5614
27.7549
23.5263
18.7982
13.5391
7.73438
1.34277
-5.6525
-13.3485
-21.887
-31.3273
-41.7258
-53.107
-65.4668
-78.9659
-93.7671
-109.98
-127.789
-147.361
-168.772
-192.171
-217.84
-246.047
-277.035
-311.036
-348.329
-389.156
-433.764
-482.48
-535.583
-593.326
-655.915
-723.529
-796.344
-874.449
-957.994
-1047.43
-1142.48
-1240.28
-1328.92
-1385.55
48.7462
44.1509
43.4183
40.027
38.1578
35.3911
32.52
29.3789
25.8854
21.9698
17.5906
12.6836
7.22459
1.17315
-5.56636
-13.0419
-21.3236
-30.3814
-40.3045
-51.1876
-62.9958
-75.8728
-90.0312
-105.476
-122.272
-140.579
-160.483
-182.119
-205.748
-231.557
-259.646
-290.212
-323.5
-359.767
-399.207
-442.083
-488.607
-538.966
-593.392
-652.087
-715.205
-782.881
-855.137
-932.022
-1013.71
-1100.65
-1192.3
-1284.73
-1365.54
-1409.17
39.9793
36.2736
35.5408
32.2182
30.2926
27.3344
24.197
20.6539
16.6519
12.1497
7.11827
1.48123
-4.79163
-11.7532
-19.4606
-27.948
-37.3114
-47.6281
-58.884
-71.2009
-84.7042
-99.329
-115.163
-132.31
-150.932
-171.158
-193.148
-217.019
-242.765
-270.571
-300.685
-333.313
-368.614
-406.748
-447.929
-492.289
-540.027
-591.312
-646.286
-705.092
-767.835
-834.587
-905.433
-980.373
-1059.42
-1142.93
-1230.59
-1317.1
-1389.26
-1421.44
31.2136
28.3622
27.6703
24.4753
22.401
19.2572
15.9293
12.1153
7.75502
2.79711
-2.81661
-9.13577
-16.208
-24.1078
-32.8759
-42.5373
-53.1142
-64.7194
-77.4077
-91.1789
-106.11
-122.385
-140.019
-159.045
-179.579
-201.698
-225.455
-251.006
-278.643
-308.442
-340.456
-374.776
-411.593
-451.086
-493.378
-538.646
-586.968
-638.509
-693.389
-751.664
-813.374
-878.562
-947.196
-1019.28
-1094.9
-1174.26
-1256.88
-1337.64
-1402.69
-1425.25
22.5339
20.0678
19.628
16.8755
14.8386
11.5791
8.0672
3.97961
-0.741188
-6.14178
-12.286
-19.1966
-26.9614
-35.6282
-45.2678
-55.964
-67.7284
-80.6039
-94.6573
-109.992
-126.555
-144.37
-163.627
-184.352
-206.588
-230.471
-256.178
-283.699
-312.955
-344.18
-377.572
-413.289
-451.373
-491.9
-534.987
-580.72
-629.229
-680.5
-734.603
-791.632
-851.603
-914.5
-980.298
-1048.89
-1120.28
-1194.85
-1271.32
-1345.4
-1403.96
-1422.14
14.8709
12.6492
12.0459
9.45881
7.54863
4.41198
0.909395
-3.2814
-8.18189
-13.8754
-20.4204
-27.8798
-36.3283
-45.8043
-56.3329
-67.9768
-80.8113
-94.8854
-110.195
-126.801
-144.897
-164.432
-185.346
-207.738
-231.739
-257.324
-284.434
-313.321
-344.187
-376.97
-411.717
-448.492
-487.423
-528.602
-572.084
-617.868
-665.954
-716.504
-769.512
-824.91
-882.684
-942.811
-1005.23
-1069.77
-1136.18
-1204.94
-1273.45
-1337.27
-1384.48
-1401.56
7.31969
6.01596
5.55749
3.16702
1.28972
-1.81863
-5.28318
-9.49123
-14.5261
-20.4332
-27.2328
-35.0321
-43.9114
-53.9468
-65.2506
-77.8195
-91.6632
-106.89
-123.568
-141.613
-160.994
-181.89
-204.324
-228.284
-253.766
-280.883
-309.817
-340.343
-372.441
-406.323
-442.06
-479.708
-519.309
-560.865
-604.386
-649.966
-697.61
-747.163
-798.623
-851.974
-907.119
-964
-1022.49
-1082.43
-1143.67
-1205.02
-1263.28
-1312.5
-1342.22
-1355.69
0.441993
-0.434033
-0.516041
-2.36167
-3.96972
-6.78605
-10.1051
-14.2293
-19.1692
-25.0612
-32.0537
-40.1957
-49.5398
-60.1064
-71.9396
-85.2026
-99.9111
-116.064
-133.728
-153.035
-173.946
-196.329
-220.231
-245.723
-272.834
-301.439
-331.483
-363.244
-396.687
-431.721
-468.412
-506.801
-546.855
-588.635
-632.174
-677.32
-724.015
-772.328
-822.162
-873.371
-925.803
-979.285
-1033.63
-1088.36
-1143.71
-1197.07
-1244.39
-1278.51
-1291.38
-1299.66
-5.49623
-5.70502
-5.70934
-7.18346
-8.33109
-10.7337
-13.6225
-17.4539
-22.2085
-27.9864
-34.8232
-42.836
-52.2243
-63.2555
-75.6605
-89.5288
-105.002
-122.137
-140.88
-161.203
-183.269
-207.051
-232.405
-259.287
-287.7
-317.804
-349.533
-382.615
-417.175
-453.26
-490.798
-529.755
-570.225
-612.137
-655.409
-700.097
-746.134
-793.34
-841.55
-890.555
-940.164
-990.198
-1040.42
-1090.57
-1139.56
-1184.64
-1222.26
-1246.71
-1254.56
-1257.45
-11.0724
-10.485
-10.0965
-10.9734
-11.7353
-13.5104
-15.8097
-19.014
-23.2042
-28.5812
-35.4514
-43.6456
-52.7922
-63.413
-75.9956
-90.3219
-106.374
-124.258
-144.037
-165.589
-188.83
-213.821
-240.565
-269.078
-299.192
-330.654
-363.542
-397.966
-433.712
-470.76
-509.143
-548.85
-589.724
-631.753
-674.974
-719.239
-764.406
-810.366
-857.044
-904.235
-951.591
-998.822
-1045.51
-1091.61
-1135.2
-1173.57
-1202.86
-1219.17
-1228.83
-1228.93
-16.5467
-15.546
-14.3802
-14.2637
-14.2778
-15.3295
-16.8306
-19.27
-22.7258
-27.2786
-33.1809
-40.8329
-50.1965
-60.7259
-73.0936
-87.5511
-104.008
-122.411
-142.876
-165.425
-189.974
-216.386
-244.546
-274.346
-305.806
-338.968
-373.567
-409.368
-446.425
-484.701
-524.068
-564.415
-605.769
-648.141
-691.373
-735.381
-780.049
-825.295
-870.872
-916.501
-961.895
-1006.82
-1051.16
-1093.82
-1132.94
-1166.23
-1189.1
-1197.7
-1202.89
-1204.44
-21.5133
-19.7673
-18.4231
-17.7349
-16.7231
-16.6328
-17.035
-18.3299
-20.6837
-24.2212
-28.9479
-35.4048
-43.9174
-54.3267
-66.5826
-80.9412
-97.6106
-116.511
-137.613
-160.983
-186.572
-214.272
-243.996
-275.592
-308.832
-343.532
-379.625
-417.048
-455.626
-495.144
-535.571
-576.897
-619.045
-661.791
-705.138
-749.116
-793.634
-838.31
-883.031
-927.76
-972.31
-1016.2
-1058.51
-1098.07
-1133.22
-1160.44
-1176.08
-1183.86
-1184.04
-1186.43
-27.3502
-24.4368
-22.4206
-20.8779
-19.1542
-17.9336
-17.0246
-16.9047
-17.7661
-19.8851
-23.285
-28.1659
-35.2329
-44.7679
-56.5641
-70.6271
-87.1425
-106.315
-127.988
-152.121
-178.72
-207.68
-238.793
-271.931
-306.98
-343.742
-381.8
-421.014
-461.24
-502.408
-544.367
-586.896
-629.825
-673.323
-717.308
-761.547
-805.866
-850.425
-895.052
-939.407
-983.424
-1026.27
-1067.19
-1104.2
-1135.3
-1156.43
-1164.88
-1169.84
-1170.28
-1172.21
-33.8826
-30.4236
-27.6056
-24.9767
-22.0843
-19.6428
-17.2754
-15.4544
-14.4674
-14.6707
-16.3198
-19.5502
-25.0032
-33.0106
-43.5876
-56.8817
-72.9275
-91.8777
-113.872
-138.691
-166.261
-196.525
-229.292
-264.315
-301.263
-339.825
-380.033
-421.52
-463.959
-507.045
-550.564
-594.468
-638.836
-683.385
-727.934
-772.633
-817.656
-862.525
-907.085
-951.404
-995.225
-1037.92
-1077.3
-1111.7
-1137.15
-1150.49
-1157.71
-1158.33
-1159.84
-1161.03
-40.1397
-36.4685
-33.7352
-30.4594
-26.3395
-22.509
-18.5949
-14.9735
-11.8765
-9.74236
-9.08364
-10.2434
-13.5433
-19.4493
-28.3043
-40.3195
-55.5771
-73.985
-95.8005
-121.049
-149.497
-180.907
-215.085
-251.854
-291.012
-332.21
-374.851
-418.709
-463.471
-508.808
-554.556
-600.539
-646.361
-692.063
-737.799
-783.418
-828.663
-873.861
-919.056
-964.193
-1007.86
-1049.57
-1088.21
-1119.7
-1139.41
-1145.8
-1148.92
-1149.91
-1151.39
-1152.27
-46.5108
-42.5461
-40.3174
-36.8026
-32.2144
-27.2737
-21.6868
-16.0261
-10.5839
-5.811
-2.29517
-0.609217
-1.14858
-4.54256
-11.2496
-21.4755
-35.3894
-53.085
-74.4403
-99.5958
-128.537
-161.048
-196.826
-235.595
-276.914
-320.444
-365.791
-412.493
-460.184
-508.446
-556.8
-604.847
-652.616
-700.158
-747.186
-793.644
-839.894
-885.814
-931.343
-976.054
-1019.87
-1061.71
-1098.6
-1125.84
-1138.55
-1144.34
-1142.57
-1143.58
-1144.48
-1145.15
-53.8598
-49.6749
-47.7244
-43.997
-39.3333
-33.8028
-27.0503
-19.6305
-11.8269
-4.25018
2.44799
7.48412
10.1854
9.98693
6.36531
-1.17779
-12.9483
-29.1659
-49.8236
-74.7701
-103.919
-137.117
-174.138
-214.745
-258.595
-304.965
-353.408
-403.4
-454.372
-505.704
-557.037
-608.042
-658.391
-707.796
-756.387
-804.27
-851.255
-897.525
-943.393
-988.502
-1032.17
-1073.28
-1108.27
-1130.31
-1137.48
-1138.36
-1137.49
-1137.62
-1138.05
-1138.5
-60.6583
-57.0988
-55.7624
-52.4816
-48.1022
-42.4209
-34.8936
-26.0515
-15.9974
-5.46895
4.77356
13.8341
20.6069
24.2875
24.2253
19.8782
10.8202
-3.23498
-22.4797
-46.7606
-75.9349
-109.764
-148.001
-190.386
-236.554
-285.848
-337.524
-391.093
-445.763
-501.073
-556.177
-610.491
-663.534
-715.265
-765.791
-814.965
-863.02
-910.037
-955.507
-999.644
-1042.63
-1082.31
-1112.83
-1128.18
-1134.72
-1132.07
-1131.63
-1131.38
-1131.52
-1131.76
-67.3413
-63.0573
-63.4616
-61.2171
-57.6479
-52.6513
-45.218
-35.6846
-23.9974
-10.8564
2.79161
15.7898
27.2083
35.8529
40.6894
40.6789
35.1361
23.9305
6.78913
-16.1818
-44.8306
-78.8303
-117.944
-161.928
-210.53
-263.038
-318.502
-376.118
-435.232
-494.777
-553.962
-612.211
-668.893
-723.481
-776.056
-826.775
-875.791
-923.138
-968.274
-1010.82
-1051.94
-1088.46
-1112.47
-1122.37
-1124.68
-1124.67
-1124.5
-1124.54
-1124.71
-1124.79
-72.6605
-66.7928
-69.6226
-69.0688
-67.3854
-64.1126
-57.7065
-48.2499
-35.5787
-20.2736
-3.15008
14.2194
30.7228
44.8067
54.9041
59.9503
59.1025
51.5768
37.3321
16.2727
-11.3948
-45.4036
-85.1738
-130.658
-181.529
-237.201
-296.742
-358.952
-422.855
-487.282
-551.273
-614.087
-674.933
-732.857
-787.643
-839.927
-890.219
-938.3
-983.232
-1024.52
-1061.48
-1091.05
-1105.67
-1114.48
-1114.6
-1116.11
-1116.87
-1117.49
-1117.94
-1118.05
-77.7575
-69.785
-74.3238
-75.0553
-75.6826
-74.8783
-70.5983
-62.4756
-50.4305
-34.5638
-15.4707
6.13354
28.5767
49.4849
66.126
77.1216
81.342
78.2052
67.7882
49.5847
23.7068
-9.41526
-49.7441
-96.6386
-149.892
-209.151
-272.883
-340.099
-409.636
-479.594
-548.647
-616.637
-682.636
-744.775
-801.865
-855.723
-907.76
-955.739
-1000.84
-1043.81
-1074.28
-1091.11
-1101.29
-1103.2
-1105.4
-1107.37
-1109.17
-1110.61
-1111.63
-1111.99
-108.087
-77.2833
-79.8298
-80.7222
-82.622
-83.7589
-82.1856
-77.4101
-67.816
-52.4361
-31.8369
-6.03711
21.4084
48.4746
72.228
90.4648
101.332
103.791
97.3408
82.1667
58.2873
25.9675
-14.8135
-62.7377
-117.976
-180.848
-249.831
-322.372
-397.579
-473.405
-548.314
-622.263
-694.083
-760.759
-820.7
-876.641
-928.006
-973.032
-1011.95
-1046.73
-1080.12
-1089.13
-1092.98
-1093.4
-1096.06
-1098.93
-1101.83
-1104.4
-1106.26
-1106.88
152.769
148.298
146.285
145.047
144.443
144.279
144.362
144.769
145.534
146.652
148.14
149.99
152.192
154.728
157.591
160.782
164.294
168.143
172.311
176.779
181.511
186.438
191.442
196.84
202.575
208.303
213.91
219.464
225.067
230.541
235.768
240.601
244.877
248.53
251.305
252.877
252.963
251.302
247.57
241.352
232.18
219.544
202.916
181.794
155.355
122.863
83.9848
38.9876
-16.6887
-72.6475
149.937
145.653
144.2
142.909
142.112
141.725
141.628
141.853
142.467
143.441
144.752
146.399
148.365
150.639
153.208
156.072
159.223
162.661
166.363
170.307
174.47
178.869
183.321
187.658
192.15
196.804
201.506
205.898
210.183
214.184
217.762
220.784
223.04
224.415
224.761
223.747
221.035
216.347
209.361
199.646
186.707
170.009
149.02
123.462
92.1274
54.5599
10.5319
-39.9067
-99.2746
-157.694
146.3
142.048
141.179
139.927
139.122
138.645
138.462
138.632
139.166
140.041
141.247
142.761
144.562
146.656
148.976
151.568
154.406
157.475
160.734
164.165
167.731
171.393
175.17
178.849
182.33
185.702
189.273
192.246
195.311
197.688
199.448
200.491
200.603
199.61
197.352
193.532
187.834
179.955
169.555
156.193
139.399
118.67
93.5164
63.3141
27.5333
-14.4702
-62.9702
-117.45
-177.955
-235.024
142.244
137.938
137.565
136.209
135.43
134.968
134.786
134.943
135.486
136.336
137.481
138.913
140.602
142.53
144.679
147.042
149.592
152.303
155.116
158.007
160.951
163.953
166.973
169.725
172.184
174.471
176.632
178.34
179.627
180.272
180.146
179.098
176.968
173.549
168.631
161.931
153.156
142.022
128.172
111.186
90.6345
66.0314
36.9066
2.79998
-36.7078
-82.2292
-133.946
-190.581
-250.751
-304.495
137.605
133.318
133.385
131.774
131.084
130.648
130.506
130.72
131.239
132.05
133.139
134.486
136.062
137.837
139.785
141.882
144.106
146.419
148.762
151.093
153.358
155.5
157.59
159.508
161.074
162.176
162.803
163
162.623
161.419
159.295
156.105
151.664
145.771
138.188
128.661
116.905
102.61
85.4591
65.0808
41.0933
13.0879
-19.3257
-56.4312
-98.5718
-146.313
-199.642
-256.969
-315.821
-364.801
132.706
128.004
128.401
126.535
125.98
125.635
125.514
125.713
126.222
126.968
127.955
129.173
130.578
132.137
133.83
135.61
137.438
139.278
141.069
142.759
144.302
145.663
146.77
147.548
147.941
147.912
147.23
145.782
143.612
140.593
136.488
131.138
124.397
116.066
105.916
93.6862
79.1212
61.9644
41.8984
18.6022
-8.21535
-38.8514
-73.5644
-112.586
-156.221
-204.798
-258.4
-315.307
-371.692
-414.471
127.235
122.433
122.756
120.744
120.235
119.849
119.753
119.923
120.329
120.971
121.82
122.844
124
125.273
126.625
127.994
129.333
130.611
131.773
132.759
133.487
133.88
133.968
133.699
132.917
131.461
129.269
126.324
122.457
117.53
111.455
104.044
95.1019
84.461
71.9236
57.2757
40.272
20.6566
-1.78858
-27.306
-56.1222
-88.4321
-124.437
-164.319
-208.294
-256.645
-309.237
-364.423
-417.327
-452.605
121.279
116.458
116.406
114.313
113.815
113.393
113.203
113.292
113.588
114.06
114.702
115.47
116.33
117.247
118.171
119.051
119.836
120.467
120.898
121.081
120.949
120.451
119.449
117.829
115.652
112.871
109.282
104.697
99.0996
92.3905
84.3936
74.9935
64.0399
51.3438
36.7356
20.0224
1.02166
-20.4355
-44.5569
-71.5153
-101.452
-134.52
-170.833
-210.541
-253.872
-301.102
-351.89
-404.3
-452.539
-479.792
113.828
109.523
109.26
107.189
106.669
106.122
105.845
105.804
105.97
106.265
106.673
107.148
107.648
108.146
108.582
108.9
109.059
108.993
108.643
107.961
106.856
105.216
103.109
100.429
96.9944
92.6473
87.4113
81.299
74.0847
65.619
55.8532
44.6561
31.8939
17.4343
1.12451
-17.1637
-37.583
-60.2953
-85.4018
-113.029
-143.301
-176.288
-212.088
-250.791
-292.534
-337.72
-386.092
-434.869
-477.676
-497.384
105.249
101.473
101.228
99.1607
98.6747
98.098
97.6971
97.5219
97.5335
97.6079
97.7357
97.887
98.0069
98.0583
97.98
97.7222
97.2285
96.4312
95.2597
93.6884
91.6691
89.0842
85.7432
81.6111
76.7539
71.1502
64.5524
56.8069
47.97
37.9436
26.5775
13.8061
-0.468277
-16.3491
-33.9252
-53.3267
-74.6488
-97.9714
-123.419
-151.053
-180.932
-213.143
-247.685
-284.63
-324.153
-366.438
-411.33
-456.184
-494.241
-508.703
95.4377
92.1891
92.0522
90.3012
89.8216
89.153
88.7011
88.4163
88.2357
88.1054
87.9547
87.7507
87.4799
87.0832
86.4832
85.6317
84.4763
82.9512
81.0042
78.5423
75.4848
71.781
67.4316
62.3123
56.2443
49.1194
40.9961
31.9014
21.6339
10.1325
-2.61431
-16.6923
-32.1629
-49.0958
-67.5731
-87.6314
-109.343
-132.789
-158.016
-185.083
-213.992
-244.76
-277.463
-312.062
-348.571
-387.395
-427.716
-467.638
-501.022
-513.832
84.7926
82.0286
81.9731
80.4203
80.0627
79.414
78.8785
78.4433
78.0784
77.7414
77.2993
76.7814
76.1373
75.2962
74.2252
72.8573
71.1031
68.8912
66.1591
62.9032
59.0346
54.4093
48.8964
42.4513
35.1241
26.9361
17.6672
7.19973
-4.36936
-17.0804
-30.9951
-46.1297
-62.5251
-80.203
-99.1714
-119.505
-141.224
-164.339
-188.89
-214.883
-242.314
-271.16
-301.398
-333.131
-366.27
-400.672
-435.094
-467.395
-491.609
-503.486
73.4387
71.0455
71.1974
69.8564
69.4749
68.7528
68.1869
67.6552
67.099
66.578
65.9749
65.1581
64.1595
62.956
61.4427
59.5536
57.2532
54.4797
51.1439
47.133
42.3469
36.7739
30.4056
23.1551
14.8511
5.34943
-5.19646
-16.7298
-29.3944
-43.1925
-58.0795
-74.049
-91.0908
-109.208
-128.433
-148.732
-170.105
-192.532
-216.022
-240.597
-266.188
-292.714
-320.108
-348.264
-377.611
-406.768
-433.905
-455.38
-466.553
-475.5
61.4402
59.4175
59.6471
58.4488
58.2144
57.4627
56.8296
56.2222
55.5158
54.7383
53.9522
52.9459
51.6979
50.1843
48.3523
46.1328
43.4186
40.1422
36.2826
31.6468
26.2544
19.9968
12.705
4.35804
-4.95939
-15.2086
-26.6219
-39.2499
-52.9245
-67.6222
-83.3303
-99.9901
-117.564
-135.997
-155.207
-175.22
-196.025
-217.587
-239.804
-262.644
-286.114
-310.05
-334.29
-358.907
-383.287
-406.391
-426.725
-441.479
-447.084
-450.71
48.3797
47.057
47.526
46.5655
46.326
45.5997
44.9352
44.2702
43.5152
42.5849
41.6024
40.4548
39.0719
37.3429
35.2648
32.7517
29.7482
26.1679
21.8913
16.8682
10.9529
4.05865
-3.85004
-12.7394
-22.774
-34.1039
-46.5321
-59.9837
-74.5413
-90.1211
-106.594
-123.887
-141.876
-160.48
-179.681
-199.36
-219.455
-239.914
-260.741
-281.847
-303.107
-324.47
-345.762
-366.833
-386.918
-405.032
-419.342
-428.414
-435.683
-436.675
34.9786
34.3774
34.9506
34.1451
34.089
33.3466
32.6543
31.9039
31.0547
30.0536
28.9046
27.675
26.237
24.5013
22.4127
19.884
16.8152
13.0905
8.59814
3.32778
-2.88463
-10.1619
-18.5484
-28.2211
-39.0029
-50.8218
-63.9217
-78.3275
-93.8009
-110.24
-127.529
-145.482
-163.992
-182.899
-202.034
-221.364
-240.836
-260.374
-279.831
-299.183
-318.441
-337.437
-356.077
-373.909
-390.557
-405.167
-416.016
-421.218
-424.766
-426.001
21.2709
21.6706
22.3644
21.722
21.5989
20.8179
20.1114
19.2843
18.383
17.3585
16.1941
14.9626
13.5323
11.8516
9.81968
7.36056
4.37336
0.76918
-3.58516
-8.85993
-15.1181
-22.4843
-31.0983
-40.9714
-52.2092
-64.9151
-78.8705
-93.9926
-110.367
-127.804
-146.052
-164.936
-184.14
-203.491
-222.871
-242.075
-260.982
-279.601
-297.925
-315.834
-333.293
-350.184
-366.328
-381.605
-395.43
-406.578
-413.633
-418.776
-419.41
-420.411
7.63289
8.90504
9.71735
9.24994
9.16259
8.27607
7.48401
6.56141
5.53038
4.45671
3.20614
2.00852
0.750838
-0.67307
-2.36965
-4.42956
-6.98032
-10.1967
-14.2215
-19.2007
-25.2346
-32.4615
-41.1109
-51.2682
-62.8369
-75.7991
-90.3867
-106.54
-123.961
-142.525
-162.008
-182.013
-202.309
-222.518
-242.374
-261.761
-280.571
-298.671
-316.082
-332.873
-348.68
-363.211
-377.065
-389.864
-400.712
-408.667
-413.695
-416.186
-416.946
-417.301
-4.9076
-3.06107
-2.42755
-2.95479
-3.12722
-4.13826
-5.11013
-6.22225
-7.40818
-8.55276
-9.62784
-10.8848
-12.0657
-13.1881
-14.4892
-16.0426
-18.003
-20.5184
-23.7865
-28.012
-33.4063
-40.0915
-48.2706
-58.116
-69.8123
-83.3876
-98.5656
-115.351
-133.893
-153.898
-174.978
-196.784
-218.729
-240.409
-261.414
-281.431
-300.284
-318.134
-335.124
-350.845
-364.616
-377.179
-388.745
-398.733
-406.167
-410.968
-414.268
-415.617
-416.29
-416.28
-16.0224
-13.5208
-13.6816
-14.358
-14.8998
-16.3221
-17.6247
-19.0596
-20.5437
-21.9536
-23.1989
-24.2172
-25.093
-25.9258
-26.6395
-27.3955
-28.4081
-29.8677
-32.0518
-35.1548
-39.4838
-45.2689
-52.7989
-62.3095
-73.6669
-86.9372
-102.666
-120.421
-140.128
-161.69
-184.754
-208.721
-233.005
-256.867
-279.685
-301.081
-321.009
-339.16
-355.584
-369.977
-382.278
-392.991
-401.47
-407.219
-410.889
-413.564
-415.204
-416.596
-417.271
-417.199
-26.1034
-23.6069
-24.1614
-24.9869
-26.0077
-27.8401
-29.6191
-31.5859
-33.5503
-35.3058
-36.7535
-37.9216
-38.7739
-39.2055
-39.4113
-39.4285
-39.3707
-39.5858
-40.2742
-41.7669
-44.4173
-48.5631
-54.4675
-62.5509
-73.455
-86.8492
-102.431
-120.515
-141.55
-164.834
-190.335
-217.304
-244.932
-272.265
-298.2
-321.919
-342.911
-361.633
-377.997
-391.334
-402.539
-410.725
-415.021
-416.396
-416.625
-417.034
-418.018
-419.448
-420.305
-420.455
-33.8976
-32.1618
-33.1185
-34.4752
-36.1134
-38.74
-41.3308
-44.0828
-46.7106
-49.1635
-51.1554
-52.5546
-53.4093
-53.6414
-53.2192
-52.2813
-50.98
-49.5633
-48.3818
-47.8439
-48.3212
-50.3229
-54.3602
-60.8848
-69.8021
-81.8916
-97.3525
-115.904
-137.756
-163.036
-191.119
-221.56
-253.414
-285.315
-315.714
-343.257
-367.407
-387.29
-402.786
-415.409
-425.018
-429.783
-430.466
-428.804
-426.671
-425.194
-424.679
-424.773
-424.989
-425.342
-38.6532
-38.5271
-40.0337
-42.2713
-44.6637
-48.3078
-51.7322
-55.5089
-59.2764
-62.6522
-65.5883
-67.7224
-68.944
-69.2403
-68.5648
-66.9783
-64.4911
-61.4481
-58.2744
-55.3217
-53.1064
-52.2129
-53.2515
-56.6827
-63.0767
-73.4675
-87.9602
-106.458
-128.492
-155.024
-185.798
-220.273
-257.26
-295.33
-332.593
-366.711
-394.823
-415.97
-431.208
-442.109
-448.136
-449.366
-447.872
-444.844
-441.367
-437.63
-434.54
-432.125
-430.956
-431.121
-39.9273
-42.0872
-44.277
-47.6745
-51.5409
-56.4554
-60.9623
-66.2466
-71.4233
-76.0827
-80.1804
-83.6695
-85.9049
-86.6883
-85.9668
-83.8213
-80.2688
-75.4918
-69.947
-64.1992
-58.7582
-54.2981
-51.706
-51.8999
-55.2056
-62.22
-73.7966
-91.0864
-113.374
-140.824
-173.875
-211.852
-254.451
-300.145
-346.51
-389.822
-425.412
-449.959
-463.993
-469.674
-469.785
-467.963
-464.577
-460.654
-455.945
-450.67
-444.579
-438.915
-435.259
-434.366
-39.2658
-42.8862
-46.3448
-51.0492
-56.0707
-62.2398
-68.3019
-75.299
-82.0763
-88.6069
-94.6052
-99.548
-103.18
-105.16
-105.211
-103.321
-99.1838
-93.1318
-85.5059
-76.9075
-67.9176
-59.3232
-52.0756
-47.2858
-45.9734
-49.0292
-57.3228
-71.8574
-92.3614
-119.276
-153.635
-195.503
-244.017
-297.812
-355.562
-412.498
-459.564
-489.908
-500.955
-496.631
-489.653
-483.147
-477.376
-471.557
-465.045
-457.681
-449.327
-440.621
-434.018
-431.32
-36.702
-41.8851
-45.9583
-51.8733
-58.0382
-65.4131
-73.328
-82.0673
-90.9089
-99.8101
-108.129
-115.434
-121.491
-125.602
-127.108
-125.777
-121.684
-114.601
-104.978
-93.3784
-80.5805
-67.3898
-54.8602
-44.6729
-37.9784
-35.5384
-38.4544
-48.4906
-66.2965
-91.9139
-125.946
-169.353
-222.063
-284.061
-353.863
-427.923
-492.52
-534.21
-542.236
-525.294
-507.171
-495.658
-486.01
-477.261
-468.166
-458.666
-447.357
-435.461
-426.499
-421.225
-34.0129
-38.8344
-43.6215
-50.4328
-57.5543
-66.1543
-75.5641
-85.9854
-97.1951
-108.914
-119.972
-130.193
-138.984
-145.952
-150.072
-150.344
-147.505
-140.479
-129.694
-115.615
-99.2755
-81.5284
-63.4145
-46.2954
-32.3343
-22.9211
-19.3943
-23.3063
-35.9539
-57.3907
-89.092
-132.767
-188.939
-258.007
-342.273
-435.851
-524.557
-580.785
-582.867
-556.067
-528.155
-511.582
-500.067
-489.36
-477.536
-463.49
-447.292
-431.25
-419.66
-413.463
-31.2236
-34.7621
-39.9128
-47.0648
-54.7438
-64.4314
-75.1619
-87.1856
-100.277
-115.286
-129.469
-143.009
-155.292
-165.786
-173.764
-177.994
-177.128
-170.888
-159.515
-143.456
-123.628
-101.235
-77.4754
-53.7064
-31.783
-13.7839
-1.55752
2.89537
-2.57402
-18.5904
-46.5095
-88.1773
-145.101
-218.954
-312.1
-421.48
-532.815
-606.202
-612.634
-579.425
-553.144
-535.858
-524.043
-512.685
-499.387
-482.542
-463.195
-443.825
-429.143
-420.833
-33.438
-29.827
-35.5772
-42.4206
-50.3515
-60.5579
-72.2068
-85.6191
-100.69
-117.709
-135.467
-152.722
-168.727
-183.701
-196.702
-205.714
-208.581
-204.626
-193.893
-177.634
-156.062
-129.986
-99.8755
-68.4
-37.4428
-9.81847
12.0234
25.985
29.6059
22.1896
2.36994
-33.8993
-89.8986
-167.598
-268.686
-390.866
-516.268
-595.743
-614.967
-591.939
-572.346
-559.952
-551.726
-542.582
-530.152
-513.428
-493.045
-472.079
-456.633
-448.5
-53.3909
-27.6078
-31.4243
-37.4121
-45.6505
-56.3869
-68.578
-82.3712
-99.0621
-118.058
-138.325
-159.149
-179.18
-198.658
-217.851
-233.139
-240.89
-240.477
-231.284
-216.147
-195.263
-166.206
-130.162
-90.6055
-50.5197
-12.7597
19.9726
45.2894
60.0536
62.9396
52.419
22.5379
-31.6177
-109.2
-211.292
-330.629
-457.885
-540.665
-575.189
-581.674
-580.322
-578.469
-575.563
-571.62
-563.786
-551.056
-534.48
-515.623
-501.344
-494.291
-36.9428
-19.9238
-24.7472
-31.3696
-40.2541
-51.3681
-64.4063
-79.3977
-96.7459
-118.086
-142.219
-167.936
-194.238
-219.205
-243.907
-266.42
-281.845
-287.154
-281.17
-263.919
-239.079
-206.21
-165.119
-117.719
-69.0906
-20.4695
24.2108
62.2168
89.6638
102.468
101.146
79.0563
25.1718
-64.7336
-187.284
-314.284
-431.049
-511.15
-554.639
-577.337
-588.885
-596.963
-601.37
-601.129
-597.473
-589.736
-578.686
-566.197
-558.924
-558.023
-24.0207
-20.896
-24.0824
-30.9913
-41.0013
-52.454
-66.6077
-85.247
-106.302
-132.255
-161.558
-192.043
-222.973
-254.421
-287.19
-315.911
-333.391
-337.287
-328.094
-306.943
-277.147
-236.283
-183.369
-123.431
-62.217
-2.02837
52.9346
97.3629
127.986
136.77
122.866
81.3013
7.77991
-92.7384
-215.53
-337.267
-437.082
-510.38
-557.676
-588.137
-608.6
-623.194
-631.747
-636.212
-635.744
-631.861
-626.124
-620.705
-621.588
-628.69
-17.6916
-21.8755
-26.4719
-34.6736
-45.9567
-60.5633
-79.5227
-102.331
-129.084
-159.637
-194.186
-230.685
-270.482
-312.853
-350.245
-378.811
-395.01
-395.549
-384.565
-359.876
-318.209
-258.504
-186.006
-107.902
-31.9292
35.2396
91.4407
130.209
146.787
139.271
105.455
41.6877
-49.3558
-157.808
-270.37
-376.012
-462.478
-528.807
-575.683
-608.633
-632.172
-648.577
-662.996
-672.002
-675.7
-676.243
-675.85
-677.234
-685.829
-698.203
-14.8712
-22.0493
-30.2683
-42.0333
-56.0788
-73.702
-97.1794
-125.898
-160.633
-198.134
-240.806
-290.938
-342.299
-389.51
-431.628
-460.372
-481.068
-486.932
-470.461
-427.166
-358.254
-273.175
-180.838
-87.4002
-1.61616
67.808
115.672
138.178
134.012
104.294
49.4962
-32.2087
-129.788
-234.878
-336.377
-430.183
-507.485
-567.329
-611.63
-643.51
-666.643
-685.528
-701.112
-712.131
-719.367
-724.508
-729.557
-737.5
-751.223
-771.356
-12.7544
-21.2093
-31.695
-45.9739
-64.3002
-89.3753
-120.193
-155.463
-196.678
-247.337
-306.163
-367.531
-430.81
-488.104
-541.343
-588.605
-614.04
-611.088
-569.734
-495.498
-395.271
-279.049
-166.184
-67.8711
13.7745
70.8228
102.5
105.669
80.3899
29.6646
-43.3022
-128.855
-226.457
-325.411
-419.298
-498.897
-564.647
-615.357
-654.416
-683.905
-706.709
-725.934
-742.388
-755.424
-766.264
-775.971
-786.697
-801.148
-819.643
-841.369
-8.99313
-19.5565
-33.6252
-51.502
-74.2642
-103.98
-141.259
-189.505
-246.757
-309.678
-382.595
-463.889
-548.09
-636.262
-709.073
-760.324
-775.961
-748.889
-670.864
-553.8
-422.419
-294.795
-174.852
-74.3074
-1.34591
41.8553
55.8593
39.869
-3.44628
-68.9972
-150.296
-241.101
-335.407
-425.522
-506.404
-574.303
-628.874
-672.077
-705.358
-731.214
-752.154
-770.548
-787.031
-801.417
-814.741
-827.513
-843.525
-863.155
-886.497
-907.829
-4.27957
-15.6352
-31.7992
-54.123
-84.3069
-124.301
-173.91
-232.557
-301.134
-386.193
-487.79
-606.4
-730.862
-839.506
-921.212
-964.49
-954.029
-892.453
-783.105
-640.143
-484.61
-337.915
-215.174
-117.706
-52.9347
-25.9583
-30.8167
-63.0835
-121.25
-196.411
-281.828
-371.015
-457.584
-536.014
-603.602
-658.874
-702.837
-737.21
-763.83
-784.88
-802.403
-818.525
-833.95
-848.947
-864.215
-877.263
-898.672
-923.426
-951.886
-972.614
0.385752
-13.6996
-33.6716
-61.0173
-96.4189
-143.347
-204.931
-285.286
-382.005
-494.247
-639.123
-812.495
-972.585
-1092.03
-1172.79
-1205.86
-1176.28
-1087.66
-948.318
-773.643
-589.581
-422.187
-292.469
-200.983
-149.681
-138.606
-162.056
-208.279
-277.104
-356.94
-440.009
-520.708
-594.341
-657.826
-710.324
-752.179
-784.668
-809.441
-828.424
-843.51