/*--------------------------------*- C++ -*----------------------------------*\
| =========                 |                                                 |
| \\      /  F ield         | OpenFOAM: The Open Source CFD Toolbox           |
|  \\    /   O peration     | Version:  v1912                                 |
|   \\  /    A nd           | Website:  www.openfoam.com                      |
|    \\/     M anipulation  |                                                 |
\*---------------------------------------------------------------------------*/
FoamFile
{
    version     2.0;
    format      ascii;
    class       surfaceScalarField;
    location    "0.31";
    object      phi;
}
// * * * * * * * * * * * * * * * * * * * * * * * * * * * * * * * * * * * * * //

dimensions      [0 3 -1 0 0 0 0];
oriented        oriented;


internalField   nonuniform List<scalar> 
13060
(
0.0059419
0.988252
-0.994193
0.00765259
0.946049
-0.94776
0.00865304
0.900609
-0.901609
0.00941168
0.857524
-0.858283
0.0098138
0.817195
-0.817597
0.00989333
0.779323
-0.779403
0.00996117
0.74322
-0.743288
0.0101488
0.708428
-0.708616
0.010258
0.675401
-0.67551
0.0104111
0.643565
-0.643718
0.0107882
0.613024
-0.613401
0.0112756
0.584063
-0.58455
0.011772
0.556413
-0.556909
0.0122552
0.529859
-0.530343
0.0127383
0.504398
-0.504881
0.0132092
0.4801
-0.480571
0.013624
0.456769
-0.457184
0.0140519
0.434475
-0.434902
0.0147692
0.413369
-0.414087
0.0155631
0.392957
-0.393751
0.0159757
0.373754
-0.374167
0.0158024
0.355844
-0.355671
0.0155697
0.338568
-0.338335
0.0154152
0.322073
-0.321918
0.0152191
0.30652
-0.306324
0.014929
0.291795
-0.291505
0.0145187
0.277881
-0.277471
0.0140383
0.264709
-0.264229
0.013552
0.252247
-0.251761
0.0130611
0.240517
-0.240026
0.0125073
0.229472
-0.228918
0.0118946
0.21904
-0.218427
0.0112225
0.209191
-0.208519
0.0104818
0.199908
-0.199167
0.00966868
0.191177
-0.190364
0.00879006
0.182937
-0.182059
0.00787711
0.175168
-0.174255
0.00694244
0.167864
-0.166929
0.00597002
0.16102
-0.160047
0.00497295
0.154588
-0.153591
0.00400265
0.148487
-0.147517
0.00307834
0.142696
-0.141771
0.00214381
0.137167
-0.136232
0.00120755
0.13203
-0.131094
0.000331278
0.127104
-0.126228
-0.000457298
0.122566
-0.121777
-0.00130834
0.117705
-0.116854
-0.00205339
0.114101
-0.113356
-0.00194936
0.105295
-0.105399
0.0746498
-0.0765992
0.00540318
0.982848
0.00624661
0.945206
0.00648593
0.900369
0.00628812
0.857722
0.00619248
0.81729
0.0064403
0.779076
0.00673683
0.742924
0.00693675
0.708228
0.00737909
0.674959
0.00795469
0.64299
0.008378
0.612601
0.00873953
0.583701
0.00911066
0.556042
0.00948004
0.52949
0.00985568
0.504022
0.0102447
0.479711
0.0105542
0.45646
0.0108156
0.434213
0.0108427
0.413342
0.0103565
0.393443
0.0101614
0.373949
0.0104247
0.355581
0.0105892
0.338403
0.0105205
0.322142
0.0103503
0.30669
0.0101398
0.292005
0.00991226
0.278108
0.00960854
0.265013
0.0091584
0.252697
0.00858783
0.241088
0.00796512
0.230095
0.00729891
0.219706
0.00656863
0.209922
0.00579811
0.200678
0.00499927
0.191976
0.00420949
0.183727
0.00342224
0.175955
0.00262057
0.168665
0.0018475
0.161793
0.00110724
0.155328
0.000375719
0.149218
-0.000367907
0.143439
-0.00108506
0.137884
-0.0016837
0.132628
-0.00224383
0.127665
-0.00271342
0.123036
-0.00319664
0.118188
-0.00320817
0.114113
-0.00244577
0.104533
0.0722041
0.00560653
0.977242
0.00624284
0.94457
0.00632719
0.900285
0.00576598
0.858283
0.0051684
0.817888
0.0044785
0.779765
0.00403303
0.743369
0.00380967
0.708452
0.00346328
0.675305
0.00317711
0.643276
0.00317223
0.612606
0.00340801
0.583466
0.00366548
0.555784
0.00392452
0.529231
0.00418725
0.50376
0.00445837
0.47944
0.00470309
0.456215
0.00494883
0.433967
0.00554133
0.41275
0.00618154
0.392803
0.00627355
0.373857
0.00594004
0.355914
0.00569121
0.338652
0.00553553
0.322297
0.00527708
0.306949
0.00490803
0.292374
0.0044237
0.278593
0.0039015
0.265535
0.00342871
0.25317
0.00297988
0.241537
0.0024728
0.230602
0.00193176
0.220247
0.00138849
0.210465
0.000832844
0.201234
0.000259286
0.19255
-0.000375308
0.184362
-0.0010361
0.176616
-0.00167098
0.1693
-0.00230694
0.162429
-0.00291287
0.155934
-0.00343565
0.149741
-0.00387096
0.143875
-0.00427386
0.138287
-0.00462007
0.132975
-0.00483158
0.127876
-0.00490755
0.123112
-0.00491814
0.118199
-0.00427213
0.113467
-0.00294646
0.103207
0.0692576
0.00401253
0.973229
0.00353587
0.945046
0.00251579
0.901305
0.00178699
0.859012
0.00120146
0.818473
0.000922428
0.780045
0.000701333
0.74359
0.0005238
0.708629
0.000708722
0.67512
0.000960227
0.643024
0.00104168
0.612524
0.00108639
0.583421
0.00120429
0.555666
0.0013455
0.52909
0.00148854
0.503617
0.00163971
0.479288
0.00180226
0.456052
0.00184516
0.433924
0.00153517
0.41306
0.000973792
0.393364
0.000741398
0.37409
0.000859925
0.355796
0.000818206
0.338694
0.000592628
0.322523
0.000373849
0.307167
0.000153739
0.292594
-6.15898e-05
0.278808
-0.000365786
0.265839
-0.000831537
0.253636
-0.00138781
0.242093
-0.00193992
0.231154
-0.00251007
0.220817
-0.00313122
0.211086
-0.00377487
0.201877
-0.00440192
0.193177
-0.00497308
0.184933
-0.00549896
0.177142
-0.00599137
0.169793
-0.00641078
0.162848
-0.00676549
0.156289
-0.0070747
0.15005
-0.0072927
0.144093
-0.00735183
0.138346
-0.00726925
0.132892
-0.00709252
0.127699
-0.00675987
0.122779
-0.00635685
0.117796
-0.00540676
0.112516
-0.00357172
0.101372
0.0656859
0.00382693
0.969402
0.00335759
0.945516
0.00252817
0.902135
0.00137396
0.860166
7.73062e-05
0.81977
-0.0011781
0.7813
-0.00210501
0.744517
-0.0028185
0.709343
-0.00361476
0.675916
-0.00424912
0.643659
-0.00453508
0.61281
-0.00465823
0.583544
-0.00465626
0.555665
-0.00460681
0.52904
-0.00454621
0.503556
-0.00447082
0.479213
-0.00437879
0.45596
-0.00421906
0.433765
-0.00380571
0.412647
-0.00334435
0.392903
-0.00342365
0.374169
-0.00382633
0.356198
-0.00406593
0.338933
-0.00424428
0.322701
-0.00457445
0.307498
-0.00503375
0.293054
-0.00560256
0.279377
-0.00615871
0.266395
-0.00660621
0.254083
-0.00700681
0.242494
-0.00745923
0.231606
-0.0079218
0.22128
-0.00834154
0.211506
-0.00872853
0.202264
-0.00909804
0.193546
-0.00946257
0.185297
-0.00978835
0.177467
-0.010064
0.170068
-0.0102919
0.163076
-0.0104313
0.156428
-0.0104369
0.150056
-0.0103364
0.143992
-0.0101754
0.138185
-0.00988704
0.132604
-0.00939391
0.127206
-0.00870299
0.122088
-0.00796704
0.11706
-0.00659729
0.111147
-0.00418246
0.0989572
0.0615034
0.00224608
0.967156
0.000379247
0.947382
-0.00181783
0.904332
-0.00299027
0.861339
-0.00400875
0.820788
-0.00469331
0.781984
-0.00534894
0.745173
-0.0058716
0.709865
-0.00595279
0.675998
-0.00604278
0.643749
-0.00631698
0.613084
-0.00658424
0.583811
-0.00674251
0.555823
-0.00682991
0.529128
-0.00688611
0.503612
-0.00693541
0.479262
-0.00701035
0.456035
-0.00725558
0.43401
-0.00776729
0.413158
-0.00829093
0.393426
-0.00851338
0.374392
-0.00856672
0.356252
-0.00880133
0.339168
-0.00914076
0.323041
-0.00940541
0.307762
-0.0096019
0.29325
-0.00977189
0.279547
-0.0100465
0.26667
-0.0104974
0.254534
-0.0110109
0.243007
-0.0114635
0.232059
-0.0118854
0.221702
-0.0123253
0.211946
-0.0127679
0.202707
-0.0131672
0.193946
-0.0134782
0.185608
-0.0137029
0.177692
-0.0138343
0.1702
-0.0138542
0.163096
-0.013774
0.156348
-0.0136062
0.149888
-0.0132932
0.143679
-0.0127981
0.13769
-0.0121551
0.131961
-0.0114121
0.126463
-0.0105064
0.121182
-0.00947779
0.116031
-0.00779848
0.109467
-0.0048264
0.0959851
0.056677
0.00208716
0.965069
0.000521832
0.948948
-0.0015571
0.906411
-0.00326981
0.863051
-0.00508679
0.822605
-0.00675692
0.783655
-0.00812648
0.746542
-0.00926924
0.711008
-0.0104815
0.67721
-0.0113794
0.644647
-0.0118665
0.613572
-0.0121635
0.584108
-0.012376
0.556035
-0.0125328
0.529285
-0.0126477
0.503727
-0.0127294
0.479344
-0.0127334
0.456039
-0.0126626
0.433939
-0.0124578
0.412953
-0.0122585
0.393227
-0.012418
0.374551
-0.0127669
0.356601
-0.0130151
0.339416
-0.0132874
0.323313
-0.0136982
0.308173
-0.0142436
0.293796
-0.0148714
0.280175
-0.0154196
0.267218
-0.0157872
0.254902
-0.0160817
0.243301
-0.0164248
0.232402
-0.0167754
0.222053
-0.0170513
0.212222
-0.0172323
0.202888
-0.0173289
0.194042
-0.0173834
0.185663
-0.0173847
0.177694
-0.0173148
0.17013
-0.0171549
0.162936
-0.0168715
0.156065
-0.0164331
0.14945
-0.0158816
0.143128
-0.0152517
0.13706
-0.0144939
0.131203
-0.0135711
0.12554
-0.0124603
0.120071
-0.011114
0.114685
-0.00901936
0.107373
-0.00539621
0.092362
0.0512808
0.000749883
0.964319
-0.00267177
0.952369
-0.00532412
0.909063
-0.007392
0.865119
-0.00900295
0.824216
-0.0101502
0.784802
-0.0111452
0.747537
-0.0119151
0.711778
-0.0122874
0.677582
-0.01269
0.645049
-0.0132218
0.614103
-0.0136562
0.584543
-0.0139932
0.556372
-0.0142613
0.529553
-0.0145093
0.503975
-0.0147944
0.479629
-0.0151594
0.456404
-0.0155906
0.43437
-0.016096
0.413459
-0.0165292
0.39366
-0.0168022
0.374824
-0.0170147
0.356813
-0.0173284
0.33973
-0.0176771
0.323662
-0.0179416
0.308438
-0.0180844
0.293938
-0.0181818
0.280272
-0.0184074
0.267444
-0.0188276
0.255322
-0.0193
0.243774
-0.0196648
0.232767
-0.0199319
0.22232
-0.0201643
0.212454
-0.0203846
0.203108
-0.0205663
0.194224
-0.0206375
0.185734
-0.0205819
0.177638
-0.0203942
0.169942
-0.0200773
0.162619
-0.019641
0.155628
-0.0190976
0.148906
-0.0183927
0.142423
-0.017507
0.136174
-0.0164902
0.130186
-0.0154009
0.124451
-0.0142927
0.118963
-0.0126498
0.113042
-0.0102185
0.104941
-0.00599675
0.0881403
0.045284
0.00082058
0.963499
-0.00219838
0.955388
-0.00503109
0.911896
-0.00748535
0.867574
-0.00988895
0.82662
-0.0121156
0.787029
-0.0139541
0.749376
-0.0155018
0.713326
-0.016996
0.679076
-0.0180481
0.646101
-0.018673
0.614728
-0.0191004
0.58497
-0.0194317
0.556704
-0.0196454
0.529766
-0.0197622
0.504092
-0.0197771
0.479644
-0.0197345
0.456362
-0.019683
0.434319
-0.0196947
0.413471
-0.0197713
0.393737
-0.0199951
0.375048
-0.0202954
0.357113
-0.0205608
0.339995
-0.0208824
0.323983
-0.0213559
0.308911
-0.0219884
0.294571
-0.0226656
0.280949
-0.0231768
0.267955
-0.0234411
0.255586
-0.0235894
0.243922
-0.0237769
0.232954
-0.0239936
0.222536
-0.0241506
0.212611
-0.0241811
0.203139
-0.0240635
0.194106
-0.0238584
0.185529
-0.0235821
0.177362
-0.0232321
0.169592
-0.0227768
0.162164
-0.0221911
0.155043
-0.0214574
0.148173
-0.0206239
0.141589
-0.0197154
0.135266
-0.0186806
0.129151
-0.0174762
0.123247
-0.0161901
0.117677
-0.0142502
0.111102
-0.0114234
0.102115
-0.00651355
0.0832304
0.0387705
-0.000390139
0.963889
-0.00493727
0.959935
-0.00850983
0.915468
-0.0114297
0.870493
-0.0135913
0.828782
-0.0151446
0.788582
-0.016441
0.750672
-0.0174734
0.714358
-0.0181205
0.679723
-0.0187845
0.646765
-0.0194469
0.615391
-0.020041
0.585564
-0.0205441
0.557207
-0.0209684
0.53019
-0.021387
0.504511
-0.0218267
0.480084
-0.0222697
0.456805
-0.022679
0.434728
-0.0230276
0.413819
-0.0232971
0.394006
-0.0235792
0.37533
-0.0238808
0.357415
-0.0242117
0.340326
-0.0245128
0.324284
-0.0247049
0.309103
-0.0247535
0.29462
-0.0247673
0.280963
-0.0249548
0.268143
-0.0253435
0.255975
-0.0257931
0.244372
-0.0261148
0.233276
-0.0262791
0.222701
-0.0263371
0.212669
-0.0263556
0.203157
-0.0263597
0.19411
-0.0262748
0.185444
-0.0260518
0.177139
-0.0256689
0.169209
-0.0251481
0.161643
-0.0245031
0.154398
-0.0237461
0.147416
-0.0228342
0.140677
-0.0217653
0.134197
-0.0206006
0.127987
-0.0193591
0.122005
-0.0179422
0.11626
-0.015908
0.109068
-0.0127195
0.0989261
-0.00707404
0.077585
0.0316965
-0.000389262
0.964278
-0.0043207
0.963867
-0.00797999
0.919128
-0.0111921
0.873705
-0.0141391
0.831729
-0.0168887
0.791331
-0.019135
0.752919
-0.0209686
0.716192
-0.0225663
0.681321
-0.0237005
0.6479
-0.0244028
0.616093
-0.0248534
0.586015
-0.0251295
0.557483
-0.0252699
0.530331
-0.0252975
0.504538
-0.0252631
0.480049
-0.0252152
0.456757
-0.0252392
0.434752
-0.0253836
0.413964
-0.025588
0.394211
-0.0257677
0.37551
-0.0259777
0.357625
-0.026238
0.340586
-0.026598
0.324644
-0.0271296
0.309635
-0.0278193
0.295309
-0.0285154
0.281659
-0.0289872
0.268614
-0.029197
0.256185
-0.0292603
0.244435
-0.0293327
0.233348
-0.0294336
0.222802
-0.0295166
0.212752
-0.0294915
0.203132
-0.0292822
0.193901
-0.0289322
0.185094
-0.0284961
0.176703
-0.0279994
0.168712
-0.0274057
0.161049
-0.0266889
0.153681
-0.0258417
0.146568
-0.0249036
0.139739
-0.0238842
0.133177
-0.0227463
0.126849
-0.0216043
0.120863
-0.0199369
0.114593
-0.0176979
0.106829
-0.0140034
0.0952315
-0.00769316
0.0712747
0.0240033
-0.00135689
0.965635
-0.00699461
0.969505
-0.0112898
0.923423
-0.0148666
0.877282
-0.0174672
0.834329
-0.0193273
0.793192
-0.020867
0.754458
-0.022142
0.717467
-0.0230577
0.682237
-0.0238764
0.648718
-0.0246686
0.616885
-0.0253207
0.586667
-0.0258516
0.558014
-0.0263073
0.530787
-0.0266998
0.504931
-0.027065
0.480414
-0.0274127
0.457105
-0.0276665
0.435006
-0.0277924
0.41409
-0.0279434
0.394362
-0.0282313
0.375797
-0.0285744
0.357968
-0.0288988
0.340911
-0.0291508
0.324896
-0.0292768
0.309761
-0.0292548
0.295287
-0.0292415
0.281646
-0.029435
0.268808
-0.0298231
0.256573
-0.0302705
0.244883
-0.0306197
0.233698
-0.0308225
0.223004
-0.0308657
0.212795
-0.0308087
0.203075
-0.030734
0.193827
-0.0306194
0.184979
-0.0303896
0.176473
-0.0299914
0.168314
-0.0294424
0.1605
-0.0287644
0.153003
-0.0279686
0.145773
-0.0270361
0.138807
-0.0259726
0.132114
-0.0248266
0.125703
-0.0236734
0.11971
-0.0218278
0.112747
-0.0193338
0.104335
-0.0149179
0.0908157
-0.00769006
0.0640469
0.0163132
-0.00198825
0.967623
-0.00637096
0.973887
-0.0104479
0.9275
-0.0143462
0.881181
-0.0178359
0.837819
-0.0210072
0.796363
-0.0235065
0.756958
-0.0254117
0.719372
-0.0269453
0.68377
-0.0279672
0.64974
-0.0285509
0.617469
-0.0288479
0.586964
-0.0289676
0.558133
-0.0289642
0.530783
-0.0288808
0.504847
-0.0287564
0.48029
-0.0286603
0.457008
-0.0286949
0.43504
-0.0288733
0.414268
-0.0290172
0.394506
-0.0291187
0.375899
-0.0292709
0.35812
-0.0295351
0.341175
-0.0299551
0.325316
-0.0305693
0.310375
-0.0313627
0.296081
-0.0321064
0.282389
-0.0326051
0.269307
-0.0328654
0.256833
-0.0330103
0.245028
-0.0331247
0.233812
-0.0332173
0.223097
-0.0333115
0.212889
-0.0333594
0.203123
-0.0332495
0.193717
-0.0329507
0.184681
-0.0325329
0.176055
-0.0320557
0.167837
-0.0315041
0.159949
-0.0308414
0.15234
-0.0300591
0.14499
-0.02918
0.137928
-0.0282359
0.13117
-0.0273018
0.124769
-0.0259854
0.118394
-0.0240484
0.11081
-0.0209586
0.101245
-0.0153389
0.085196
-0.00647374
0.0551818
0.00983949
-0.00332864
0.970952
-0.00981776
0.980376
-0.0144792
0.932161
-0.0182289
0.88493
-0.0209682
0.840558
-0.0230689
0.798464
-0.0248186
0.758707
-0.0262066
0.72076
-0.0271685
0.684732
-0.027987
0.650559
-0.0286856
0.618167
-0.0292206
0.587499
-0.0295904
0.558503
-0.0298117
0.531004
-0.0299347
0.50497
-0.0300188
0.480374
-0.030078
0.457068
-0.0300496
0.435012
-0.0300276
0.414246
-0.0301825
0.394661
-0.0304419
0.376158
-0.0307501
0.358429
-0.0310612
0.341486
-0.0313344
0.325589
-0.0314809
0.310521
-0.0314722
0.296072
-0.0315582
0.282475
-0.031891
0.269639
-0.0324073
0.257349
-0.0329301
0.24555
-0.0333918
0.234274
-0.0337835
0.223489
-0.0340313
0.213137
-0.0341145
0.203206
-0.0341224
0.193725
-0.0341266
0.184685
-0.0340653
0.175994
-0.0338547
0.167627
-0.0334735
0.159567
-0.0329489
0.151815
-0.032294
0.144335
-0.0315048
0.137139
-0.0306018
0.130267
-0.0297437
0.123911
-0.0282525
0.116902
-0.0261227
0.10868
-0.0222403
0.0973625
-0.0150751
0.0780307
-0.0046478
0.0447545
0.0051917
-0.00261451
0.973566
-0.00822336
0.985985
-0.0132311
0.937169
-0.0178982
0.889597
-0.0217566
0.844417
-0.0250357
0.801743
-0.0274994
0.761171
-0.0293176
0.722578
-0.0306229
0.686038
-0.031329
0.651265
-0.0315742
0.618413
-0.0315324
0.587457
-0.0313146
0.558285
-0.0310484
0.530738
-0.0307474
0.504669
-0.0304138
0.48004
-0.0301511
0.456805
-0.0300282
0.434889
-0.0299313
0.414149
-0.0298528
0.394582
-0.0298791
0.376185
-0.0300512
0.358601
-0.0303705
0.341805
-0.0308587
0.326078
-0.0316191
0.311282
-0.0326166
0.29707
-0.0335225
0.283381
-0.0341652
0.270282
-0.034617
0.257801
-0.0350402
0.245974
-0.0354216
0.234655
-0.0357078
0.223775
-0.0359557
0.213385
-0.0362169
0.203467
-0.0364127
0.19392
-0.0364147
0.184687
-0.0362397
0.175819
-0.0359638
0.167351
-0.0356258
0.159229
-0.035193
0.151383
-0.0346514
0.143794
-0.0340151
0.136502
-0.0333952
0.129647
-0.0324473
0.122963
-0.0307752
0.11523
-0.0280741
0.105979
-0.0232383
0.0925267
-0.0148747
0.0696671
-0.00314661
0.0330264
0.00204508
-0.00491348
0.97848
-0.0118797
0.992951
-0.0171598
0.942449
-0.0215281
0.893966
-0.0246958
0.847584
-0.0271609
0.804208
-0.0290379
0.763048
-0.0303512
0.723891
-0.0312216
0.686908
-0.0318667
0.65191
-0.0322891
0.618835
-0.0324768
0.587645
-0.032332
0.558141
-0.0319476
0.530354
-0.0315237
0.504246
-0.0311265
0.479643
-0.0307124
0.456391
-0.030391
0.434568
-0.0302609
0.414019
-0.0302706
0.394592
-0.0303882
0.376302
-0.030606
0.358818
-0.030923
0.342122
-0.0312976
0.326452
-0.0315163
0.3115
-0.031618
0.297171
-0.0319314
0.283695
-0.0325771
0.270928
-0.0333919
0.258616
-0.0341635
0.246745
-0.0348886
0.23538
-0.0356198
0.224506
-0.0362789
0.214044
-0.036745
0.203934
-0.0370362
0.194212
-0.0373017
0.184952
-0.0375639
0.176081
-0.0377372
0.167524
-0.0377328
0.159225
-0.037556
0.151206
-0.0372292
0.143467
-0.0368001
0.136073
-0.0363845
0.129231
-0.035339
0.121917
-0.0335606
0.113452
-0.0302974
0.102716
-0.0242277
0.0864571
-0.0141589
0.0595982
-0.00200481
0.0208724
4.02677e-05
-0.00437963
0.982859
-0.0112695
0.999841
-0.0169366
0.948116
-0.0219956
0.899025
-0.0261216
0.85171
-0.0295133
0.807599
-0.0320024
0.765537
-0.0337436
0.725633
-0.0347038
0.687868
-0.03492
0.652126
-0.0345972
0.618512
-0.0340968
0.587145
-0.0335106
0.557554
-0.0328137
0.529657
-0.0319665
0.503398
-0.0311087
0.478785
-0.0303736
0.455656
-0.0297033
0.433897
-0.0291649
0.413481
-0.0288511
0.394278
-0.0287254
0.376177
-0.0288563
0.358949
-0.0291744
0.34244
-0.0297425
0.327021
-0.0307674
0.312525
-0.0320776
0.298481
-0.0332738
0.284891
-0.0342002
0.271854
-0.0350109
0.259427
-0.0358536
0.247588
-0.0366832
0.23621
-0.0373908
0.225214
-0.0379962
0.21465
-0.0386178
0.204555
-0.0392774
0.194871
-0.0398034
0.185478
-0.0401002
0.176378
-0.0402112
0.167635
-0.0402441
0.159258
-0.0402131
0.151175
-0.040106
0.14336
-0.0400465
0.136014
-0.0396736
0.128858
-0.0385531
0.120797
-0.0365613
0.11146
-0.03262
0.0987747
-0.0245707
0.0784077
-0.0115075
0.0465351
-0.00133872
0.0107036
-0.00129845
-0.00586724
0.988727
-0.014095
1.00807
-0.0205954
0.954616
-0.0259829
0.904412
-0.029739
0.855466
-0.0325903
0.810451
-0.0346051
0.767552
-0.0358971
0.726925
-0.0367077
0.688679
-0.037108
0.652526
-0.0369214
0.618326
-0.0361572
0.586381
-0.0350704
0.556468
-0.0339335
0.52852
-0.0328355
0.5023
-0.0316983
0.477648
-0.0306631
0.454621
-0.0298601
0.433094
-0.0292247
0.412845
-0.0288153
0.393869
-0.0286811
0.376043
-0.028787
0.359055
-0.0291753
0.342828
-0.0296236
0.327469
-0.0299049
0.312807
-0.0301989
0.298775
-0.030858
0.28555
-0.0319351
0.272931
-0.0331885
0.26068
-0.0344274
0.248827
-0.0356152
0.237398
-0.0368308
0.226429
-0.0380467
0.215866
-0.0391163
0.205625
-0.039934
0.195689
-0.0406339
0.186178
-0.0413525
0.177096
-0.0420675
0.16835
-0.042637
0.159827
-0.0430123
0.15155
-0.0432881
0.143636
-0.043512
0.136238
-0.0430936
0.12844
-0.0419831
0.119686
-0.0394824
0.108959
-0.0339036
0.093196
-0.0235643
0.0680684
-0.00778888
0.0307597
-0.00107219
0.00398689
-0.00237064
-0.00689751
0.995624
-0.0143908
1.01556
-0.0209366
0.961162
-0.0269148
0.91039
-0.031907
0.860459
-0.0358943
0.814438
-0.0387505
0.770408
-0.0404971
0.728671
-0.0411615
0.689343
-0.0409696
0.652334
-0.0401818
0.617538
-0.0390102
0.585209
-0.0374778
0.554935
-0.0356572
0.5267
-0.0338062
0.500449
-0.0320504
0.475892
-0.0304009
0.452971
-0.0289845
0.431678
-0.0278953
0.411756
-0.0271017
0.393075
-0.0266025
0.375543
-0.02642
0.358873
-0.0265866
0.342995
-0.0272602
0.328142
-0.0286151
0.314162
-0.030297
0.300457
-0.0318511
0.287104
-0.0332095
0.27429
-0.034533
0.262004
-0.0359009
0.250194
-0.0373177
0.238814
-0.0386494
0.227761
-0.0398348
0.217051
-0.040957
0.206747
-0.0421526
0.196885
-0.0433287
0.187354
-0.0442949
0.178062
-0.0449997
0.169055
-0.0455754
0.160403
-0.0461433
0.152118
-0.0467888
0.144281
-0.0471102
0.136559
-0.0466801
0.12801
-0.0453138
0.11832
-0.041519
0.105165
-0.0331185
0.0847955
-0.0187326
0.0536825
-0.00420212
0.0162292
-0.000305601
9.03773e-05
-0.00267624
-0.00821952
1.00384
-0.0178492
1.02519
-0.0255855
0.968898
-0.03178
0.916585
-0.0363842
0.865063
-0.0400636
0.818117
-0.0425843
0.772929
-0.044161
0.730248
-0.0448912
0.690074
-0.0448143
0.652257
-0.0440646
0.616788
-0.0426598
0.583804
-0.0407645
0.55304
-0.0384594
0.524395
-0.0359912
0.497981
-0.033679
0.47358
-0.0315585
0.450851
-0.0296719
0.429792
-0.0281688
0.410253
-0.0271018
0.392008
-0.0264551
0.374897
-0.0262872
0.358705
-0.0265573
0.343265
-0.0269584
0.328544
-0.0272459
0.314449
-0.0277469
0.300958
-0.0288214
0.288179
-0.030396
0.275864
-0.032206
0.263814
-0.0340838
0.252072
-0.0359038
0.240634
-0.0377214
0.229579
-0.0395773
0.218907
-0.0413962
0.208566
-0.0429862
0.198475
-0.0443321
0.1887
-0.0456192
0.179349
-0.046953
0.170389
-0.0482427
0.161693
-0.0493533
0.153229
-0.0503193
0.145247
-0.0505195
0.136759
-0.0500381
0.127528
-0.047818
0.1161
-0.0420927
0.0994393
-0.0307664
0.0734692
-0.0125504
0.0354664
-0.00255755
0.00623635
-0.000155796
-0.00231138
-0.00283204
-0.00711915
1.01096
-0.0166319
1.0347
-0.0252887
0.977555
-0.0332193
0.924515
-0.039627
0.871471
-0.0446632
0.823154
-0.0483733
0.776639
-0.0506358
0.73251
-0.0515422
0.69098
-0.0512569
0.651972
-0.0499094
0.615441
-0.047723
0.581618
-0.0450525
0.550369
-0.0419726
0.521315
-0.0386221
0.494631
-0.0352831
0.470241
-0.0322378
0.447805
-0.0295632
0.427117
-0.027277
0.407967
-0.0255519
0.390283
-0.0243229
0.373668
-0.0235636
0.357945
-0.023406
0.343108
-0.0240816
0.329219
-0.0256477
0.316015
-0.0276449
0.302955
-0.0295811
0.290115
-0.031443
0.277726
-0.033372
0.265743
-0.0353865
0.254087
-0.0374927
0.242741
-0.0395961
0.231682
-0.0415577
0.220868
-0.0433515
0.21036
-0.045126
0.200249
-0.0469772
0.190551
-0.0487386
0.181111
-0.0502256
0.171876
-0.0514478
0.162915
-0.0527815
0.154562
-0.0537935
0.146259
-0.0540458
0.137011
-0.053173
0.126656
-0.049409
0.112336
-0.0401686
0.0901989
-0.0237695
0.0570702
-0.00672974
0.0184266
-0.00125234
0.00075895
2.83056e-05
-0.00359203
-0.00280373
-0.00930262
1.02027
-0.020056
1.04546
-0.0291332
0.986632
-0.0371297
0.932512
-0.0437591
0.8781
-0.049207
0.828601
-0.0530305
0.780462
-0.0556102
0.73509
-0.0568542
0.692224
-0.056785
0.651903
-0.0555898
0.614245
-0.0533407
0.579369
-0.0502942
0.547323
-0.0467791
0.517799
-0.0429002
0.490752
-0.0389178
0.466259
-0.03511
0.443998
-0.0317219
0.423729
-0.0288135
0.405058
-0.0264364
0.387906
-0.0248225
0.372054
-0.0239788
0.357102
-0.0237094
0.342838
-0.0236926
0.329202
-0.0238929
0.316215
-0.0245788
0.303641
-0.0260367
0.291573
-0.02814
0.27983
-0.0305619
0.268165
-0.0331339
0.256659
-0.0357411
0.245348
-0.0383156
0.234256
-0.0409036
0.223456
-0.0435125
0.212969
-0.0460119
0.202749
-0.0481852
0.192725
-0.0501135
0.183039
-0.0520327
0.173795
-0.0540875
0.16497
-0.055991
0.156466
-0.0569319
0.1472
-0.056997
0.137076
-0.0549568
0.124615
-0.0486921
0.106071
-0.0359437
0.0774504
-0.0152249
0.0363514
-0.00372395
0.00692566
-0.00066761
-0.00229739
5.79967e-05
-0.00431763
-0.00274573
-0.00868119
1.02895
-0.0186445
1.05542
-0.0287912
0.996779
-0.0382908
0.942012
-0.0466719
0.886481
-0.0540249
0.835955
-0.0598496
0.786287
-0.0638585
0.739099
-0.0660314
0.694397
-0.0664075
0.652279
-0.0650963
0.612934
-0.0623761
0.576648
-0.0584309
0.543378
-0.0537418
0.51311
-0.0485345
0.485544
-0.0430929
0.460817
-0.0378431
0.438748
-0.0330542
0.41894
-0.0289962
0.401
-0.0256578
0.384567
-0.023035
0.369431
-0.021229
0.355296
-0.0204025
0.342012
-0.0208444
0.329644
-0.0222783
0.317649
-0.0243441
0.305707
-0.0266013
0.29383
-0.0289472
0.282175
-0.0315227
0.27074
-0.0342982
0.259434
-0.0371729
0.248223
-0.0401122
0.237196
-0.0429693
0.226314
-0.0456329
0.215632
-0.0481088
0.205224
-0.0506281
0.195244
-0.0531907
0.185602
-0.0555727
0.176177
-0.0577582
0.167155
-0.0593161
0.158024
-0.0600708
0.147955
-0.0596342
0.13664
-0.0557468
0.120728
-0.0454364
0.0957607
-0.0263927
0.0584067
-0.00788559
0.0178442
-0.00192263
0.000962705
-0.000321492
-0.00389853
2.38163e-05
-0.00466294
-0.00272192
-0.00683014
1.03578
-0.0187215
1.06731
-0.0300342
1.00809
-0.0403832
0.952361
-0.0495397
0.895638
-0.0575021
0.843917
-0.0638702
0.792655
-0.0687955
0.744024
-0.0719428
0.697544
-0.0731796
0.653516
-0.0725093
0.612264
-0.070081
0.57422
-0.0662068
0.539503
-0.0613355
0.508239
-0.0557909
0.48
-0.0498411
0.454867
-0.0438052
0.432712
-0.0380406
0.413175
-0.0328514
0.395811
-0.028571
0.380287
-0.0253439
0.366204
-0.0231654
0.353117
-0.0217807
0.340627
-0.0208592
0.328723
-0.0206572
0.317447
-0.0212977
0.306348
-0.0229843
0.295517
-0.0255874
0.284779
-0.0286468
0.2738
-0.0319419
0.262729
-0.0354238
0.251705
-0.038911
0.240683
-0.0423799
0.229782
-0.0458399
0.219092
-0.0492983
0.208683
-0.052477
0.198423
-0.0552382
0.188363
-0.0578268
0.178765
-0.060338
0.169667
-0.0620895
0.159775
-0.062952
0.148817
-0.0610539
0.134742
-0.0538383
0.113512
-0.0388798
0.0808022
-0.0161733
0.0357002
-0.00475999
0.0064309
-0.00143149
-0.00236579
-0.000421629
-0.00490839
-0.000104537
-0.00498003
-0.00282645
-0.00252642
1.0383
-0.0138948
1.07868
-0.0258134
1.02001
-0.0380104
0.964558
-0.049782
0.907409
-0.0607377
0.854873
-0.0701965
0.802114
-0.0775701
0.751398
-0.0826414
0.702615
-0.0853661
0.656241
-0.0856062
0.612504
-0.0833671
0.571981
-0.0788837
0.53502
-0.0726128
0.501968
-0.0652101
0.472597
-0.0572384
0.446896
-0.0492011
0.424675
-0.0416217
0.405596
-0.0348269
0.389016
-0.028911
0.374371
-0.0240792
0.361372
-0.0204835
0.349521
-0.0184516
0.338595
-0.0181575
0.328429
-0.0191347
0.318425
-0.0210407
0.308254
-0.0234149
0.297891
-0.0260835
0.287447
-0.0292414
0.276957
-0.032826
0.266314
-0.0366019
0.25548
-0.0404895
0.244571
-0.0443405
0.233633
-0.0480176
0.222769
-0.051389
0.212054
-0.0546253
0.201659
-0.0579722
0.19171
-0.0614163
0.182209
-0.0640281
0.172278
-0.0654754
0.161223
-0.0649408
0.148283
-0.0605069
0.130308
-0.0489983
0.102004
-0.0270303
0.0588342
-0.00838541
0.0170553
-0.0026834
0.000728894
-0.000948066
-0.00410113
-0.000402583
-0.00545387
-0.000167891
-0.00521472
-0.00299434
-0.00105571
1.03936
-0.0123376
1.08996
-0.0243132
1.03199
-0.0365195
0.976764
-0.0484607
0.91935
-0.0600451
0.866457
-0.0704153
0.812484
-0.0795661
0.760549
-0.0865747
0.709624
-0.0909242
0.66059
-0.0926204
0.6142
-0.0915989
0.570959
-0.0881254
0.531547
-0.0826238
0.496467
-0.0755351
0.465508
-0.0673663
0.438727
-0.058605
0.415913
-0.0497052
0.396696
-0.0414506
0.380762
-0.0343504
0.367271
-0.0285475
0.355569
-0.0241029
0.345077
-0.0207476
0.33524
-0.0183349
0.326016
-0.0170969
0.317187
-0.0172021
0.308359
-0.0188007
0.299489
-0.0217299
0.290376
-0.0253734
0.280601
-0.029443
0.270383
-0.0338166
0.259854
-0.0383446
0.249099
-0.0428621
0.238151
-0.0473032
0.22721
-0.0517677
0.216519
-0.056095
0.205986
-0.0599456
0.195561
-0.063208
0.185472
-0.065357
0.174427
-0.0663941
0.16226
-0.0645626
0.146451
-0.0565911
0.122336
-0.0389286
0.0843413
-0.0151181
0.0350237
-0.00431489
0.00625207
-0.00124081
-0.00234518
-0.000342292
-0.00499965
-0.000146459
-0.0056497
-0.000109067
-0.00525211
-0.00310341
0.00282253
1.03654
-0.005236
1.09802
-0.0170696
1.04382
-0.0303445
0.990039
-0.0444689
0.933475
-0.0591566
0.881145
-0.0733272
0.826655
-0.0859529
0.773174
-0.0966397
0.720311
-0.104244
0.668195
-0.108314
0.61827
-0.108747
0.571393
-0.105336
0.528136
-0.0985982
0.489728
-0.0894785
0.456389
-0.0788594
0.428108
-0.0676898
0.404744
-0.0565397
0.385546
-0.0457962
0.370018
-0.0361859
0.357661
-0.0280482
0.347431
-0.0216947
0.338723
-0.0176436
0.331189
-0.0157575
0.32413
-0.0156356
0.317065
-0.0168438
0.309567
-0.0189858
0.301631
-0.0218041
0.293195
-0.0254507
0.284248
-0.0297858
0.274719
-0.0345362
0.264604
-0.0394954
0.254058
-0.0445384
0.243194
-0.0494609
0.232133
-0.0539518
0.22101
-0.0580707
0.210105
-0.0624989
0.199989
-0.0663504
0.189323
-0.068822
0.176899
-0.0685697
0.162007
-0.0635966
0.141478
-0.0504945
0.109234
-0.0255669
0.0594137
-0.00714281
0.0165997
-0.00156726
0.000676518
0.000144685
-0.00405713
0.000495179
-0.00535015
0.000330529
-0.00548505
6.216e-05
-0.00498375
-0.00304125
0.003449
1.03309
-0.00151618
1.10299
-0.0124383
1.05474
-0.0247102
1.00231
-0.0381222
0.946887
-0.0525853
0.895608
-0.067358
0.841428
-0.0818654
0.787682
-0.094614
0.733059
-0.104832
0.678412
-0.111648
0.625086
-0.114741
0.574486
-0.114364
0.527758
-0.110322
0.485687
-0.103055
0.449123
-0.0929485
0.418001
-0.0810454
0.392841
-0.0686794
0.37318
-0.0566303
0.357969
-0.045577
0.346607
-0.0360839
0.337938
-0.0281872
0.330827
-0.0216134
0.324615
-0.016641
0.319158
-0.0136018
0.314026
-0.0126833
0.308648
-0.0137403
0.302688
-0.0165236
0.295978
-0.0206828
0.288407
-0.0256045
0.27964
-0.0309668
0.269967
-0.0365939
0.259685
-0.0424344
0.249034
-0.0482783
0.237977
-0.0538594
0.226591
-0.0593389
0.215585
-0.0642786
0.204928
-0.0676933
0.192738
-0.0694833
0.178689
-0.0674277
0.159952
-0.0573773
0.131428
-0.0379735
0.0898304
-0.0134198
0.0348601
-0.00280958
0.00598945
0.000186748
-0.00231981
0.00101485
-0.00488523
0.000997373
-0.00533266
0.000606616
-0.00509429
0.000183871
-0.004561
-0.00285738
0.0112096
1.02188
0.00919437
1.105
-0.000574951
1.06451
-0.0143928
1.01613
-0.0298259
0.96232
-0.0471047
0.912886
-0.0657521
0.860075
-0.0841869
0.806117
-0.101603
0.750475
-0.116717
0.693526
-0.127905
0.636274
-0.133553
0.580134
-0.133791
0.527996
-0.1287
0.480596
-0.119832
0.440254
-0.108195
0.406364
-0.0942348
0.37888
-0.0791396
0.358085
-0.0637783
0.342608
-0.0491681
0.331997
-0.0364906
0.325261
-0.0264337
0.32077
-0.0192736
0.317455
-0.0146558
0.31454
-0.0123148
0.311684
-0.0118639
0.308198
-0.0132454
0.30407
-0.0160268
0.298759
-0.0201329
0.292513
-0.0253608
0.284868
-0.0311533
0.275759
-0.037293
0.265825
-0.0438226
0.255564
-0.0504115
0.244566
-0.0563417
0.232521
-0.0619109
0.221154
-0.0665851
0.209603
-0.0689121
0.195065
-0.068181
0.177958
-0.0634268
0.155198
-0.0520128
0.120014
-0.0250956
0.0629131
-0.00645229
0.0162168
-0.00105883