/*--------------------------------*- C++ -*----------------------------------*\
| =========                 |                                                 |
| \\      /  F ield         | OpenFOAM: The Open Source CFD Toolbox           |
|  \\    /   O peration     | Version:  v1912                                 |
|   \\  /    A nd           | Website:  www.openfoam.com                      |
|    \\/     M anipulation  |                                                 |
\*---------------------------------------------------------------------------*/
FoamFile
{
    version     2.0;
    format      ascii;
    class       volVectorField;
    location    "0.31";
    object      U;
}
// * * * * * * * * * * * * * * * * * * * * * * * * * * * * * * * * * * * * * //

dimensions      [0 1 -1 0 0 0 0];


internalField   nonuniform List<vector> 
6600
(
(39.8425 -0.0525419 0)
(40.1074 -0.0623054 1.76476e-20)
(40.169 0.0257787 1.237e-18)
(40.21 0.128409 0)
(40.2567 0.233686 1.52041e-18)
(40.3163 0.372078 5.14545e-20)
(40.3905 0.539394 -5.71263e-20)
(40.4589 0.688409 -6.25717e-20)
(40.5218 0.852808 1.27049e-18)
(40.5576 1.03487 -1.37313e-19)
(40.5775 1.21442 0)
(40.6301 1.39163 -1.53135e-18)
(40.6795 1.58083 0)
(40.7154 1.78087 -1.65022e-18)
(40.7428 1.98733 -2.22098e-18)
(40.7628 2.20899 -1.16197e-18)
(40.7672 2.43973 0)
(40.7684 2.68109 0)
(40.7804 2.96431 1.77899e-18)
(40.8045 3.18645 -1.58405e-18)
(40.7992 3.40586 -2.3345e-19)
(40.754 3.76099 -8.40456e-19)
(40.6967 4.1788 -1.49323e-18)
(40.6461 4.5735 3.05191e-19)
(40.6181 4.99787 1.12695e-18)
(40.5721 5.45751 0)
(40.5038 5.96922 2.45722e-18)
(40.4339 6.52951 0)
(40.369 7.13597 -9.87333e-19)
(40.3188 7.77825 -5.38885e-19)
(40.2719 8.4703 -4.01672e-19)
(40.2264 9.22957 -5.15188e-19)
(40.1845 10.046 -2.62433e-19)
(40.1296 10.9303 2.72887e-19)
(40.0705 11.8903 4.34722e-19)
(40.0175 12.9317 3.79237e-22)
(39.9697 14.0668 3.73473e-19)
(39.9427 15.2869 -3.83487e-19)
(39.9342 16.6041 4.82789e-19)
(39.9282 18.0297 -7.63176e-19)
(39.9385 19.5499 -6.42446e-19)
(39.9993 21.1819 0)
(40.0772 22.9048 1.27945e-18)
(40.1401 24.7646 -2.71467e-18)
(40.2461 26.7192 0)
(40.4346 28.8596 -3.48497e-18)
(40.5977 30.9354 -8.22675e-18)
(41.1612 33.5169 0)
(39.6911 34.8137 0)
(29.4703 28.1711 -4.16846e-18)
(39.7314 -0.0370715 1.03942e-18)
(40.1761 -0.0526974 -1.09134e-18)
(40.2278 0.0772416 0)
(40.2787 0.207954 -2.05661e-20)
(40.3279 0.341326 1.44139e-18)
(40.3825 0.488866 4.96112e-20)
(40.4531 0.625382 -5.92637e-22)
(40.5216 0.777351 -6.05681e-20)
(40.5871 0.935431 0)
(40.649 1.08466 -2.25828e-18)
(40.7228 1.24538 -8.07811e-20)
(40.7902 1.42554 1.36281e-18)
(40.8481 1.61652 1.40043e-18)
(40.893 1.81814 9.67367e-19)
(40.9292 2.02745 1.32501e-21)
(40.9584 2.25126 1.30911e-19)
(40.9737 2.48571 -1.07718e-18)
(40.9833 2.72759 0)
(40.9951 3.01217 0)
(40.9947 3.35708 1.59953e-18)
(40.9675 3.71904 2.01623e-19)
(40.9555 4.05784 -1.02762e-18)
(40.9479 4.40108 -8.57044e-19)
(40.9408 4.80266 -9.05382e-19)
(40.933 5.22755 -6.8057e-19)
(40.9266 5.69358 -2.97201e-19)
(40.9118 6.19972 -4.12921e-19)
(40.9018 6.7394 -3.25708e-19)
(40.8923 7.33171 9.28377e-19)
(40.8843 7.99238 3.45268e-19)
(40.8725 8.71144 -9.56281e-19)
(40.853 9.48158 7.66118e-19)
(40.8361 10.3167 8.27259e-20)
(40.8357 11.2246 -3.52183e-19)
(40.8564 12.2092 4.85042e-19)
(40.8788 13.2643 -3.87887e-22)
(40.92 14.3891 -9.59464e-19)
(40.9804 15.6027 -1.40203e-20)
(41.0761 16.906 8.11999e-19)
(41.2166 18.3028 1.04538e-18)
(41.3767 19.7888 0)
(41.5277 21.3673 0)
(41.7211 23.0354 1.86828e-18)
(42.0322 24.8312 -2.14934e-18)
(42.4152 26.7165 -6.23614e-18)
(42.8479 28.7901 3.59899e-18)
(43.2043 30.7689 1.06367e-17)
(43.916 33.1519 0)
(42.4764 34.0025 -9.66805e-18)
(30.9164 27.0279 4.51662e-18)
(39.6513 -0.0364783 -4.92268e-20)
(40.2991 -0.0780468 1.11432e-18)
(40.3518 0.065557 1.14273e-18)
(40.4063 0.190719 -3.92332e-22)
(40.4678 0.332155 -1.39683e-19)
(40.5392 0.501266 4.79882e-20)
(40.6224 0.682721 0)
(40.6956 0.844882 0)
(40.7629 1.02468 0)
(40.798 1.22908 1.20455e-18)
(40.8279 1.42853 -7.56798e-20)
(40.8804 1.61903 -1.37334e-18)
(40.941 1.81876 -7.36515e-19)
(40.9913 2.0309 1.47477e-18)
(41.0327 2.25199 8.08999e-19)
(41.0707 2.48756 -1.15991e-19)
(41.101 2.73954 2.16064e-18)
(41.1265 2.99354 -1.01431e-18)
(41.1577 3.28047 -1.08433e-18)
(41.2138 3.53109 0)
(41.2474 3.79378 -6.04712e-19)
(41.236 4.17216 8.12509e-19)
(41.2192 4.59633 8.67331e-19)
(41.2288 5.00274 9.16814e-19)
(41.2472 5.4508 7.67895e-19)
(41.2521 5.93422 3.32494e-21)
(41.2526 6.47515 -1.06215e-19)
(41.2576 7.06661 -1.41266e-19)
(41.2796 7.69547 -9.16541e-20)
(41.3196 8.35661 3.94495e-19)
(41.3748 9.06968 4.78301e-20)
(41.4426 9.85083 0)
(41.5323 10.685 3.34018e-19)
(41.6166 11.5766 -2.1662e-19)
(41.7068 12.5322 -5.92557e-19)
(41.8202 13.5617 -1.64606e-18)
(41.9574 14.6743 1.9691e-19)
(42.1367 15.8596 8.70722e-19)
(42.3463 17.1288 5.74588e-19)
(42.5829 18.49 0)
(42.8754 19.9337 3.00035e-18)
(43.2543 21.4686 0)
(43.657 23.0663 0)
(44.0672 24.7705 6.06822e-18)
(44.5773 26.5461 3.55286e-18)
(45.1842 28.4756 -5.64021e-18)
(45.8429 30.4223 -6.02872e-18)
(46.6681 32.535 0)
(45.1803 32.9299 -5.73713e-18)
(32.0291 25.5274 6.24179e-18)
(39.5982 0.00547375 -9.97281e-19)
(40.4237 -0.0331463 7.90422e-21)
(40.4467 0.181739 -1.17467e-18)
(40.5168 0.308713 -1.14601e-18)
(40.5671 0.459517 -1.33748e-18)
(40.6321 0.620256 -6.68968e-19)
(40.7102 0.767671 -4.93566e-20)
(40.7833 0.93566 0)
(40.8545 1.10335 8.87785e-19)
(40.9338 1.25558 1.02687e-18)
(41.013 1.43571 -6.97302e-20)
(41.0825 1.62816 -7.4078e-20)
(41.1519 1.83092 -6.07441e-19)
(41.211 2.04268 -1.81814e-19)
(41.2596 2.26465 -1.65522e-20)
(41.3039 2.5 -1.00321e-19)
(41.3413 2.75334 -5.00145e-20)
(41.3796 3.01107 1.13769e-18)
(41.4213 3.3059 1.40055e-18)
(41.4695 3.68272 0)
(41.4862 4.05914 1.66223e-19)
(41.5137 4.41352 0)
(41.5584 4.77143 0)
(41.5955 5.20185 -1.19419e-19)
(41.654 5.65622 2.82377e-19)
(41.7161 6.14414 3.53712e-19)
(41.7788 6.66285 -4.81394e-20)
(41.8539 7.21407 2.2698e-19)
(41.9345 7.82276 0)
(42.0228 8.50265 0)
(42.1229 9.23164 -3.51356e-19)
(42.223 10.0051 0)
(42.3315 10.8409 -3.41054e-20)
(42.4749 11.7471 -8.28166e-19)
(42.6595 12.7265 1.4019e-18)
(42.8594 13.7614 2.19299e-18)
(43.0909 14.852 -3.59224e-18)
(43.3585 16.0189 1.37792e-18)
(43.691 17.2567 5.06385e-19)
(44.0853 18.5687 5.90745e-19)
(44.5033 19.9479 -7.04642e-18)
(44.9421 21.4008 0)
(45.4813 22.9141 0)
(46.1527 24.5089 -3.48311e-18)
(46.9034 26.1612 -5.36757e-18)
(47.7251 27.9749 -9.91837e-19)
(48.5185 29.8011 -8.52228e-18)
(49.3014 31.6038 9.41495e-18)
(47.4782 31.5616 1.2577e-17)
(32.7373 23.729 0)
(39.561 0.0096611 -3.45217e-21)
(40.5845 -0.0402146 9.16602e-19)
(40.6251 0.166644 9.95383e-19)
(40.6982 0.27548 1.18871e-18)
(40.7639 0.4526 0)
(40.8361 0.632101 5.73773e-20)
(40.9211 0.827652 0)
(40.9986 1.00292 -4.83547e-20)
(41.0686 1.19991 -1.64165e-18)
(41.1055 1.41945 -1.02586e-18)
(41.1538 1.62411 6.29281e-20)
(41.2202 1.83335 6.54605e-20)
(41.2939 2.04709 -7.2851e-20)
(41.3656 2.26833 -6.6089e-19)
(41.429 2.50175 -1.37198e-18)
(41.4878 2.74688 8.77194e-20)
(41.5398 3.00975 -1.41939e-18)
(41.5926 3.28502 8.76792e-20)
(41.6439 3.55838 -4.44783e-19)
(41.7272 3.82507 -1.85696e-19)
(41.8142 4.12735 5.46145e-19)
(41.8557 4.52421 0)
(41.8938 4.94334 0)
(41.9664 5.35096 -2.52837e-20)
(42.0399 5.81154 -1.51208e-19)
(42.1173 6.31499 -1.52745e-19)
(42.2018 6.87601 1.68566e-20)
(42.3031 7.4863 0)
(42.4253 8.12539 -1.32417e-19)
(42.5685 8.78859 1.47499e-19)
(42.7321 9.50384 3.57113e-19)
(42.9238 10.2827 1.30914e-18)
(43.1618 11.1113 -4.49147e-19)
(43.4051 11.9856 7.48598e-19)
(43.6616 12.9103 -8.33022e-19)
(43.961 13.9009 0)
(44.2986 14.9569 1.36714e-18)
(44.6931 16.0731 4.64048e-18)
(45.1262 17.2554 -2.525e-18)
(45.6082 18.5037 -3.12767e-18)
(46.1781 19.8119 4.06783e-18)
(46.8449 21.182 0)
(47.5295 22.591 0)
(48.2427 24.064 -5.05527e-18)
(49.0842 25.567 1.1127e-17)
(50.0098 27.1777 3.01838e-18)
(51.0184 28.9256 4.99422e-18)
(51.7487 30.4322 -1.0954e-17)
(49.5285 29.941 7.4984e-19)
(33.0049 21.6528 -1.65396e-17)
(39.5326 0.0393892 8.19704e-19)
(40.7408 0.0108453 -7.99692e-20)
(40.7523 0.307073 -1.01549e-18)
(40.8403 0.406206 4.92443e-19)
(40.8832 0.585737 0)
(40.9515 0.749349 6.57508e-19)
(41.0301 0.902069 -2.08168e-20)
(41.1066 1.08258 -6.64221e-19)
(41.1846 1.25139 8.07061e-19)
(41.2779 1.41084 0)
(41.3612 1.60059 5.30574e-20)
(41.4363 1.80595 3.6289e-19)
(41.5118 2.01961 -4.98655e-19)
(41.5897 2.23967 6.56085e-20)
(41.662 2.47058 6.52206e-19)
(41.7329 2.7133 -7.00094e-20)
(41.7994 2.97376 4.70249e-19)
(41.8743 3.25059 -6.98468e-20)
(41.9595 3.5753 5.4717e-20)
(42.046 3.94451 7.1494e-20)
(42.1176 4.30848 5.39828e-20)
(42.1975 4.67156 1.13802e-20)
(42.2975 5.05788 2.09003e-21)
(42.4048 5.49995 -1.16919e-19)
(42.5384 5.96464 0)
(42.6756 6.45336 1.39272e-19)
(42.8293 6.96659 -1.22359e-19)
(43.0009 7.51185 -4.08058e-20)
(43.1858 8.12133 -1.10831e-19)
(43.3888 8.80476 -2.76871e-19)
(43.624 9.52706 9.98303e-19)
(43.864 10.2837 -9.20452e-19)
(44.1061 11.0891 0)
(44.4002 11.9569 0)
(44.7519 12.8912 0)
(45.1339 13.8709 0)
(45.5589 14.8938 3.48869e-18)
(46.0327 15.9678 -6.67803e-18)
(46.5895 17.0921 0)
(47.216 18.2674 3.74149e-20)
(47.8584 19.4791 -3.98724e-19)
(48.543 20.7398 -7.5783e-18)
(49.3644 22.0309 4.19562e-18)
(50.3104 23.3611 0)
(51.3254 24.7063 3.73988e-18)
(52.4144 26.188 -1.33684e-17)
(53.4486 27.7722 9.57267e-18)
(53.9621 28.9377 6.80879e-18)
(51.0079 28.0228 2.46746e-17)
(32.7258 19.2976 -1.84386e-17)
(39.5352 0.0558981 -8.08774e-19)
(40.923 -0.0121609 -1.60087e-18)
(40.9737 0.28239 1.35233e-20)
(41.059 0.356791 -4.94565e-19)
(41.1166 0.5779 4.61209e-19)
(41.1897 0.75218 -1.67147e-20)
(41.2734 0.955531 5.62642e-19)
(41.3495 1.1387 6.66882e-19)
(41.4191 1.3518 6.31144e-19)
(41.4617 1.57628 -2.24972e-20)
(41.5231 1.78477 -3.32595e-19)
(41.6061 1.99383 -8.27286e-20)
(41.6902 2.21082 4.4197e-19)
(41.7791 2.43695 0)
(41.8655 2.67433 0)
(41.9495 2.9225 2.13397e-20)
(42.0274 3.18557 3.18016e-19)
(42.1116 3.45867 0)
(42.2097 3.72883 9.23126e-21)
(42.3375 4.02125 -1.43836e-19)
(42.4748 4.33307 -8.1527e-20)
(42.579 4.72026 -1.25949e-19)
(42.6846 5.12225 0)
(42.826 5.53729 1.50705e-19)
(42.9818 5.99834 1.06048e-19)
(43.1492 6.50871 -1.18303e-19)
(43.3353 7.07423 0)
(43.5428 7.68529 0)
(43.7736 8.31107 1.34014e-19)
(44.0274 8.94929 6.32184e-19)
(44.3012 9.63592 -1.65474e-18)
(44.6194 10.384 7.15994e-19)
(45.0146 11.18 1.07238e-18)
(45.4243 12.0092 -2.57049e-18)
(45.8521 12.867 4.22159e-18)
(46.3253 13.7705 1.31366e-18)
(46.8475 14.7228 -2.39633e-18)
(47.4359 15.7245 3.05336e-18)
(48.0657 16.7691 -4.53304e-18)
(48.7543 17.852 5.50392e-20)
(49.5512 18.9711 -4.60898e-19)
(50.432 20.1175 3.88955e-18)
(51.3132 21.2821 5.5043e-18)
(52.2355 22.4736 -6.11478e-18)
(53.2902 23.6617 3.78424e-18)
(54.3955 24.9159 0)
(55.5342 26.3672 5.69328e-18)
(55.8426 27.2301 8.19735e-18)
(52.0877 25.8674 -1.71669e-17)
(31.7956 16.6866 -5.31238e-18)
(39.5609 0.0670752 6.49574e-19)
(41.1094 0.0372328 7.55659e-19)
(41.1244 0.405233 6.22673e-21)
(41.2114 0.47148 -3.87409e-19)
(41.2539 0.700312 -8.95058e-19)
(41.3232 0.859551 4.55072e-19)
(41.3992 1.01657 -1.02623e-18)
(41.4741 1.2025 2.42948e-19)
(41.5598 1.36727 -6.13112e-19)
(41.6566 1.53435 -2.75062e-19)
(41.742 1.72866 6.29846e-19)
(41.8263 1.93288 -3.80007e-19)
(41.9155 2.14364 -2.37118e-19)
(42.0107 2.36369 3.19921e-21)
(42.1086 2.59392 -6.91058e-20)
(42.2115 2.83988 5.64864e-20)
(42.3152 3.10343 -1.21702e-19)
(42.4321 3.40197 0)
(42.5542 3.71904 0)
(42.695 4.06681 0)
(42.8478 4.41498 3.91151e-20)
(42.9873 4.77595 9.47962e-20)
(43.1458 5.16843 3.05192e-19)
(43.3384 5.59585 9.81734e-20)
(43.5505 6.0538 0)
(43.7715 6.52266 0)
(44.015 7.00837 -6.36625e-19)
(44.2858 7.52476 3.90862e-19)
(44.5807 8.11123 -1.29933e-19)
(44.9104 8.76917 1.56046e-19)
(45.2923 9.46238 1.07283e-19)
(45.6864 10.1754 1.27013e-18)
(46.064 10.9197 -6.75699e-19)
(46.4977 11.709 2.50541e-18)
(46.9943 12.556 -1.84042e-18)
(47.5417 13.4408 -9.76127e-19)
(48.1343 14.3529 2.28545e-19)
(48.7806 15.2895 1.90914e-18)
(49.5138 16.2556 2.04133e-18)
(50.3155 17.2493 2.94826e-18)
(51.1136 18.2502 -4.42202e-19)
(51.9668 19.2774 5.05128e-18)
(52.9736 20.306 -5.61879e-18)
(54.0845 21.3435 0)
(55.2419 22.3642 0)
(56.4675 23.5056 0)
(57.5041 24.7405 0)
(57.3949 25.2393 0)
(52.3929 23.4772 -9.95368e-18)
(30.1452 13.9128 1.6317e-17)
(39.6068 0.0860102 -6.5088e-19)
(41.3085 -0.00349342 0)
(41.3833 0.378418 0)
(41.4612 0.416869 3.93886e-19)
(41.5129 0.679819 4.11353e-19)
(41.5875 0.851297 -4.54039e-19)
(41.6684 1.06541 4.79187e-19)
(41.7422 1.25662 -2.43722e-19)
(41.8121 1.47738 1.95374e-19)
(41.8667 1.69723 2.71795e-19)
(41.947 1.90301 -2.61737e-19)
(42.0411 2.10599 1.46263e-19)
(42.1415 2.31701 3.05056e-19)
(42.2468 2.53501 0)
(42.3531 2.75913 8.70971e-20)
(42.4632 2.99156 -5.48248e-20)
(42.5757 3.22826 7.02226e-21)
(42.7045 3.47648 1.94921e-19)
(42.8581 3.74467 -3.16621e-19)
(43.0325 4.03955 0)
(43.2196 4.35855 0)
(43.3996 4.71732 -4.25924e-19)
(43.5771 5.09156 1.77038e-19)
(43.7913 5.4943 7.59142e-19)
(44.0433 5.93715 2.34747e-19)
(44.3115 6.43468 -9.05079e-19)
(44.6106 6.98644 1.46882e-18)
(44.9343 7.5764 -1.56146e-18)
(45.2779 8.15949 8.89503e-19)
(45.6412 8.74484 -7.70996e-19)
(46.0138 9.36413 4.57872e-19)
(46.4327 10.0421 -1.57769e-18)
(46.9606 10.7663 9.40316e-19)
(47.5221 11.5217 -1.77574e-18)
(48.1082 12.2868 0)
(48.7224 13.0683 -1.59255e-18)
(49.3908 13.8785 -1.71421e-18)
(50.1244 14.7243 2.76093e-19)
(50.8964 15.5936 3.3227e-18)
(51.7249 16.4773 -3.37792e-18)
(52.6718 17.3773 -4.14192e-19)
(53.6785 18.276 -5.6424e-18)
(54.6626 19.1778 1.31855e-17)
(55.6936 20.0762 7.42965e-19)
(56.8521 20.9584 8.84142e-19)
(58.0739 21.9576 -5.16916e-18)
(58.8985 22.8199 0)
(58.4511 23.1303 8.99937e-18)
(52.1217 20.9311 -4.75643e-18)
(27.6473 11.0147 0)
(39.6638 0.0992966 1.94965e-21)
(41.5166 0.0402541 -1.24039e-22)
(41.5496 0.47796 -2.70595e-19)
(41.6254 0.523253 0)
(41.6681 0.794773 -4.81924e-21)
(41.734 0.941727 -1.41132e-19)
(41.8071 1.10458 0)
(41.8821 1.28713 1.4472e-19)
(41.9736 1.44978 -2.05584e-19)
(42.0708 1.61818 1.06964e-20)
(42.1653 1.80664 9.86447e-20)
(42.2674 2.00248 -1.24118e-19)
(42.3818 2.20718 -7.06329e-20)
(42.5029 2.42 0)
(42.6345 2.64388 0)
(42.7747 2.88467 0)
(42.9206 3.14501 1.99982e-19)
(43.0747 3.42174 -1.97375e-19)
(43.2476 3.7113 5.76388e-19)
(43.4501 4.01965 -7.63729e-20)
(43.6725 4.33034 1.88921e-19)
(43.8813 4.67708 3.12889e-19)
(44.1075 5.04976 -1.33858e-18)
(44.3818 5.44259 -1.25735e-18)
(44.6752 5.86166 0)
(44.9776 6.28633 8.4318e-19)
(45.3041 6.71763 -2.07285e-18)
(45.667 7.18129 1.37754e-18)
(46.0678 7.72176 -7.45766e-19)
(46.5112 8.32378 4.4158e-19)
(47.0287 8.96196 -6.20289e-19)
(47.5751 9.60541 2.26155e-18)
(48.0826 10.2632 -2.64968e-18)
(48.6264 10.9395 3.48056e-18)
(49.223 11.6605 1.47739e-18)
(49.8918 12.4194 -3.4745e-18)
(50.601 13.1938 4.28456e-18)
(51.3676 13.9716 -2.76602e-18)
(52.2123 14.7557 1.45626e-20)
(53.1158 15.5477 0)
(53.9912 16.325 4.63834e-18)
(54.9282 17.1101 3.0927e-18)
(56.0256 17.8729 3.13544e-19)
(57.2045 18.6225 -8.74065e-18)
(58.4113 19.349 -3.23058e-19)
(59.6953 20.2555 -6.03752e-18)
(60.2379 20.8274 0)
(59.0367 20.8713 9.47882e-18)
(50.8523 18.2393 -1.58666e-17)
(24.3707 8.18383 0)
(39.7298 0.120998 0)
(41.7643 0.000502958 0)
(41.837 0.438081 1.64753e-19)
(41.8981 0.460914 -7.68882e-21)
(41.944 0.752674 1.14943e-19)
(42.0171 0.919842 1.46789e-19)
(42.0938 1.14012 0)
(42.1674 1.33594 -1.45052e-19)
(42.2434 1.54837 7.87834e-20)
(42.3138 1.7553 0)
(42.4003 1.9485 -1.07561e-19)
(42.5092 2.13685 -4.87004e-20)
(42.6285 2.32729 5.22398e-21)
(42.7524 2.51946 -5.82442e-21)
(42.8876 2.71557 0)
(43.0351 2.91647 0)
(43.1955 3.12438 -7.22466e-20)
(43.3828 3.35269 -2.18508e-19)
(43.5903 3.59606 8.89837e-20)
(43.8054 3.87294 -5.23563e-20)
(44.0541 4.1732 1.27467e-19)
(44.2993 4.48023 -7.70681e-20)
(44.5505 4.81228 7.65808e-19)
(44.8484 5.1779 3.47787e-19)
(45.1913 5.58617 -6.04625e-19)
(45.5605 6.04311 -9.70757e-19)
(45.9684 6.55683 7.30062e-19)
(46.4021 7.09273 1.09536e-18)
(46.8437 7.60787 0)
(47.3183 8.12473 0)
(47.7786 8.6591 0)
(48.263 9.23903 -1.58308e-18)
(48.8699 9.85484 -1.10206e-18)
(49.5388 10.5074 -1.19916e-18)
(50.2475 11.1624 1.66763e-18)
(50.9648 11.806 2.04044e-18)
(51.7329 12.4579 -1.03529e-18)
(52.5473 13.1291 2.92886e-18)
(53.3956 13.8121 -1.70808e-18)
(54.2924 14.4917 -2.23988e-18)
(55.3091 15.1714 -2.75293e-18)
(56.361 15.8301 3.0697e-18)
(57.3677 16.4804 0)
(58.4231 17.1052 4.85126e-18)
(59.599 17.7252 -2.72355e-18)
(60.7246 18.4432 3.24227e-18)
(60.9098 18.7121 0)
(58.9075 18.5271 -4.82686e-18)
(48.8152 15.4805 2.81954e-18)
(20.0612 5.35512 0)
(39.8132 0.117472 7.35792e-20)
(41.9735 0.0526256 0)
(42.0148 0.528441 1.88198e-19)
(42.0712 0.557809 -7.82917e-20)
(42.1108 0.855503 -1.10973e-19)
(42.1699 0.98585 2.56856e-21)
(42.2398 1.14725 -2.85921e-21)
(42.3146 1.32114 0)
(42.4085 1.48012 -7.78992e-20)
(42.5131 1.64144 -7.19989e-21)
(42.6218 1.8158 8.62565e-21)
(42.7422 1.99724 2.07179e-20)
(42.8787 2.1818 -5.15055e-20)
(43.0275 2.37385 -1.70198e-20)
(43.1884 2.57466 1.11112e-20)
(43.3612 2.78649 0)
(43.5381 3.00726 -2.03224e-19)
(43.7328 3.24625 2.74116e-19)
(43.9658 3.48903 3.52214e-20)
(44.2309 3.73347 -9.65986e-21)
(44.5146 4.00256 7.4259e-20)
(44.806 4.31345 0)
(45.1076 4.64114 1.40469e-19)
(45.454 4.98403 5.6237e-19)
(45.8314 5.33887 7.73927e-19)
(46.2081 5.69927 9.76026e-19)
(46.6059 6.05506 0)
(47.0503 6.45197 -7.65767e-19)
(47.5428 6.92235 -1.62034e-18)
(48.0599 7.44043 9.34108e-19)
(48.6759 7.99295 -2.01426e-18)
(49.351 8.55048 -1.00786e-18)
(49.9847 9.11826 1.85185e-18)
(50.6187 9.67677 -6.90759e-19)
(51.2729 10.257 -1.68223e-18)
(51.9989 10.8728 -9.49395e-19)
(52.764 11.5009 -1.25719e-18)
(53.5986 12.1241 0)
(54.4933 12.732 -2.01505e-18)
(55.4264 13.3301 4.47661e-18)
(56.3101 13.8987 2.77042e-18)
(57.2549 14.4591 -3.27933e-18)
(58.3621 14.981 4.24977e-18)
(59.5311 15.4802 -2.24939e-18)
(60.7838 16.0253 5.65014e-18)
(61.6037 16.4601 7.43572e-20)
(61.493 16.6135 0)
(58.1902 16.1012 9.95782e-18)
(45.4179 12.5739 -8.48694e-18)
(14.8725 2.77142 -3.18487e-18)
(39.8957 0.168072 -7.39249e-20)
(42.2793 0.02954 4.97137e-20)
(42.3379 0.469285 -8.00984e-20)
(42.3672 0.485958 7.74362e-20)
(42.407 0.798944 2.37759e-20)
(42.4694 0.959058 1.68016e-21)
(42.5344 1.17797 -7.96832e-22)
(42.6001 1.36448 0)
(42.6727 1.55376 -1.37403e-20)
(42.7419 1.737 2.33051e-20)
(42.8336 1.89985 0)
(42.946 2.05577 -6.50524e-21)
(43.0783 2.20903 -8.05989e-21)
(43.2251 2.36117 1.02522e-19)
(43.3899 2.51606 -1.77691e-19)
(43.5796 2.67735 -4.87883e-21)
(43.7916 2.84315 3.00389e-20)
(44.024 3.02666 0)
(44.2698 3.23345 -1.68103e-19)
(44.5452 3.46771 3.59162e-19)
(44.8587 3.70631 -4.46443e-20)
(45.1611 3.95292 0)
(45.483 4.22763 0)
(45.8641 4.53634 -3.09811e-19)
(46.2925 4.88727 1.28673e-19)
(46.7525 5.28561 -9.45069e-19)
(47.2592 5.7423 3.77854e-19)
(47.7769 6.19773 -2.22241e-19)
(48.3013 6.62998 7.84947e-19)
(48.887 7.06734 3.38365e-19)
(49.4364 7.52035 1.19915e-18)
(49.9676 7.99859 -1.16112e-18)
(50.5971 8.49173 7.31922e-19)
(51.3102 9.02471 -8.2076e-19)
(52.0891 9.5666 -1.00498e-18)
(52.8809 10.085 -1.12744e-18)
(53.7041 10.5901 0)
(54.5379 11.0927 2.64461e-18)
(55.3999 11.6024 -9.9432e-19)
(56.3074 12.1002 -2.4186e-18)
(57.3256 12.5848 2.88301e-18)
(58.3603 13.0367 -8.65684e-20)
(59.3275 13.4694 -2.21263e-18)
(60.3537 13.882 -4.36203e-20)
(61.5064 14.3253 -2.85786e-18)
(61.9184 14.5119 -6.97916e-18)
(61.2018 14.4408 4.13974e-18)
(56.3687 13.5242 0)
(41.2486 9.66069 -5.86363e-18)
(9.23504 0.539161 1.1218e-17)
(40.0458 0.1679 -7.38739e-23)
(42.5052 0.0998501 -5.01314e-20)
(42.5398 0.594898 7.22323e-21)
(42.5526 0.600421 3.17336e-22)
(42.5734 0.897189 -2.36224e-20)
(42.6186 1.00831 0)
(42.6778 1.16592 0)
(42.7407 1.32656 -5.29458e-22)
(42.8276 1.4683 3.34695e-20)
(42.928 1.60799 -1.80803e-20)
(43.04 1.75578 3.05496e-21)
(43.1663 1.90506 -7.9294e-21)
(43.3113 2.05346 4.04802e-20)
(43.4691 2.20301 -5.12262e-20)
(43.6425 2.35118 2.52793e-19)
(43.8363 2.50508 -6.33176e-20)
(44.048 2.66564 8.36109e-20)
(44.2955 2.83607 2.78269e-20)
(44.5834 3.00679 -3.14652e-19)
(44.8895 3.18992 -2.33707e-19)
(45.2431 3.41474 7.10845e-21)
(45.611 3.65147 -6.53573e-20)
(45.9829 3.91037 0)
(46.4029 4.18345 -3.55138e-19)
(46.8552 4.46959 7.31178e-21)
(47.304 4.74842 1.18055e-19)
(47.7635 5.01647 9.99839e-20)
(48.295 5.34506 2.69371e-19)
(48.8596 5.73821 0)
(49.4174 6.16502 2.03708e-19)
(50.0768 6.60965 1.17541e-18)
(50.8311 7.06865 1.11241e-18)
(51.574 7.54951 -6.28766e-19)
(52.2936 8.0113 1.26926e-18)
(52.9903 8.46623 -1.02913e-18)
(53.7182 8.94191 -6.40251e-19)
(54.4919 9.43446 0)
(55.3489 9.92892 -1.76326e-18)
(56.2443 10.3906 -1.12593e-18)
(57.1457 10.8263 1.25774e-18)
(57.9848 11.2248 -1.52555e-18)
(58.8754 11.6023 1.82358e-18)
(59.9307 11.9393 0)
(61.0888 12.2812 1.2761e-18)
(62.0077 12.5516 0)
(62.1257 12.5704 1.7941e-18)
(60.5905 12.2874 -4.29957e-18)
(53.7952 10.896 2.45467e-18)
(35.6263 6.52491 0)
(5.70578 -0.607048 7.98266e-19)
(40.1422 0.154999 -4.48001e-24)
(42.7855 0.0402189 -3.6824e-24)
(42.8459 0.505238 -7.50119e-21)
(42.8611 0.525974 -8.13586e-24)
(42.8803 0.855029 5.32542e-23)
(42.9171 0.99745 1.65768e-23)
(42.9589 1.20131 -1.84543e-23)
(43.0021 1.36586 1.37652e-22)
(43.0511 1.52618 -1.85703e-20)
(43.1086 1.67011 -6.42287e-22)
(43.185 1.78938 -4.91775e-22)
(43.294 1.89508 1.24359e-21)
(43.4311 1.9941 4.94416e-20)
(43.591 2.08878 -6.96308e-20)
(43.7739 2.19147 -9.97757e-20)
(43.9856 2.2923 6.30002e-20)
(44.2239 2.39579 -8.10933e-20)
(44.4819 2.51602 -3.77397e-21)
(44.7752 2.65777 -4.86428e-21)
(45.1115 2.79798 0)
(45.4653 2.95418 -7.90423e-21)
(45.831 3.13097 -5.10425e-21)
(46.221 3.33752 5.70576e-21)
(46.675 3.57073 0)
(47.1824 3.83884 0)
(47.7174 4.17217 3.42999e-19)
(48.3066 4.5626 0)
(48.8763 4.92438 -2.69738e-19)
(49.4773 5.2693 0)
(50.1561 5.62499 1.3526e-20)
(50.8013 6.00703 -5.26695e-19)
(51.3857 6.3987 3.73033e-20)
(52.0134 6.78403 -7.77025e-19)
(52.7147 7.19726 6.9234e-20)
(53.5031 7.63603 4.61279e-19)
(54.3444 8.06334 7.21007e-19)
(55.1882 8.46029 -2.51355e-20)
(56.0068 8.82759 0)
(56.84 9.19813 -1.78996e-20)
(57.7182 9.5532 2.12868e-20)
(58.6871 9.88611 0)
(59.6611 10.1833 -2.98873e-20)
(60.5633 10.4684 -1.43984e-19)
(61.5815 10.7712 -1.10138e-18)
(62.0127 10.8657 -2.32274e-20)
(61.6796 10.7738 0)
(58.8072 10.208 0)
(49.4815 8.32248 3.51015e-19)
(28.7586 3.63656 -3.46893e-19)
(2.86642 -0.744262 7.85801e-19)
(40.3365 0.197017 3.48855e-21)
(43.0618 0.133078 4.71113e-21)
(43.0684 0.622976 2.63626e-21)
(43.0405 0.636417 4.54814e-21)
(43.0363 0.938802 6.26583e-21)
(43.0567 1.04012 -1.00864e-20)
(43.0896 1.1995 0)
(43.1265 1.33896 0)
(43.1902 1.45206 1.67767e-20)
(43.2648 1.5655 6.42207e-22)
(43.3615 1.67418 -3.13673e-20)
(43.4699 1.77835 -2.5443e-21)
(43.5949 1.87117 -5.93747e-20)
(43.7442 1.94768 8.12995e-20)
(43.9218 2.01066 1.18273e-19)
(44.1291 2.08862 0)
(44.3695 2.16245 0)
(44.6569 2.23831 3.77341e-21)
(44.9717 2.33165 4.86354e-21)
(45.3282 2.4491 -2.12338e-19)
(45.7474 2.58417 7.90294e-21)
(46.1672 2.729 0)
(46.5994 2.89702 0)
(47.0836 3.08846 -6.84963e-20)
(47.6031 3.2975 -3.38744e-19)
(48.1162 3.47785 1.06859e-19)
(48.6397 3.65311 0)
(49.2602 3.91496 -3.07721e-19)
(49.8776 4.23274 0)
(50.4747 4.57546 -1.35232e-20)
(51.1429 4.92406 0)
(51.9228 5.28791 0)
(52.7345 5.68479 2.05551e-19)
(53.534 6.07757 2.41137e-19)
(54.2807 6.44155 0)
(54.9874 6.79976 0)
(55.7428 7.17906 2.51256e-20)
(56.5807 7.58014 0)
(57.444 7.94577 1.78905e-20)
(58.2784 8.27803 -7.17283e-19)
(59.0413 8.56771 8.40376e-19)
(59.8454 8.83219 8.29199e-20)
(60.8547 9.08073 5.83747e-20)
(61.7387 9.26697 -1.20628e-18)
(61.9132 9.29046 -7.53678e-19)
(60.8735 9.09253 4.53966e-18)
(56.3066 8.34609 -2.06654e-18)
(44.1388 6.16102 -2.45902e-18)
(19.7368 1.36088 2.02069e-18)
(0.731817 -0.389986 0)
(40.5232 0.169878 -3.48854e-21)
(43.3603 0.0938999 1.99929e-20)
(43.402 0.581652 -2.50254e-21)
(43.3766 0.590939 1.26882e-20)
(43.3528 0.925461 -6.48591e-21)
(43.3499 1.05279 1.02798e-20)
(43.3509 1.2419 1.27427e-21)
(43.3496 1.39324 -1.41941e-21)
(43.3573 1.52215 -1.4213e-20)
(43.3802 1.61977 -2.84396e-21)
(43.4235 1.68212 3.35977e-20)
(43.518 1.725 9.69874e-20)
(43.6383 1.76492 -6.76939e-20)
(43.784 1.80465 -7.38776e-20)
(43.9568 1.83157 -3.6436e-19)
(44.1643 1.84161 2.11731e-20)
(44.4015 1.85935 -2.36342e-20)
(44.6796 1.88522 2.66609e-19)
(45.007 1.91153 4.57445e-20)
(45.3624 1.94671 1.60992e-19)
(45.7613 2.01472 0)
(46.1929 2.0951 0)
(46.6477 2.21194 0)
(47.1718 2.3455 0)
(47.7405 2.52623 3.30018e-19)
(48.3484 2.79469 -8.53879e-19)
(48.9955 3.10861 0)
(49.6074 3.37968 9.50059e-19)
(50.2795 3.64443 0)
(51.0204 3.92577 0)
(51.7534 4.23458 -1.15283e-18)
(52.4117 4.55955 7.10332e-19)
(53.0523 4.87217 -1.64858e-18)
(53.7198 5.18831 4.70842e-19)
(54.4719 5.54016 0)
(55.3324 5.90974 0)
(56.1778 6.2497 8.69101e-19)
(56.9803 6.53487 -2.9925e-18)
(57.7674 6.81184 0)
(58.5947 7.07359 -2.15903e-18)
(59.4965 7.32099 3.30558e-18)
(60.4022 7.54666 -3.86345e-18)
(61.3019 7.79718 2.10509e-18)
(61.6683 7.92225 -2.57833e-18)
(61.3415 7.88735 6.95648e-18)
(59.1739 7.62707 -6.19954e-18)
(52.2772 6.70079 4.15869e-18)
(36.1374 4.23562 -9.29771e-18)
(10.1097 0.0541304 1.1069e-17)
(-0.688601 0.0702149 -7.11827e-18)
(40.7005 0.15745 -3.80994e-20)
(43.6359 0.166245 1.5086e-20)
(43.6243 0.665579 0)
(43.5642 0.709283 -1.7193e-20)
(43.516 1.03249 -5.64672e-20)
(43.4917 1.12575 1.85407e-21)
(43.4768 1.29379 0)
(43.4704 1.40874 0)
(43.4822 1.50886 -5.24869e-21)
(43.5079 1.59144 5.83237e-21)
(43.5518 1.6679 -1.34658e-19)
(43.609 1.70218 9.01845e-20)
(43.6858 1.69912 1.27852e-19)
(43.8035 1.67827 -1.72869e-19)
(43.9629 1.66708 2.35587e-19)
(44.1622 1.64332 4.27461e-20)
(44.4131 1.60925 -4.54732e-19)
(44.7086 1.58014 -7.98869e-19)
(45.0537 1.57524 0)
(45.4577 1.5692 4.45858e-19)
(45.8985 1.58936 5.70009e-19)
(46.3621 1.62823 0)
(46.8472 1.70088 -9.11593e-19)
(47.39 1.80423 0)
(47.9826 1.91272 0)
(48.5472 1.9784 8.51302e-19)
(49.1476 2.07136 5.22166e-19)
(49.8444 2.26089 1.31086e-18)
(50.5141 2.50228 0)
(51.1662 2.77289 0)
(51.8456 3.05784 5.39909e-19)
(52.6158 3.34624 6.80382e-19)
(53.4568 3.66702 2.59532e-18)
(54.323 4.01035 6.84981e-20)
(55.1361 4.3287 7.85859e-20)
(55.8394 4.61499 -2.89164e-18)
(56.5758 4.91178 -1.02249e-19)
(57.3696 5.25141 3.98516e-18)
(58.1941 5.57782 2.41833e-18)
(58.9646 5.87664 1.40231e-18)
(59.6488 6.13212 3.40495e-18)
(60.4406 6.39395 1.78293e-19)
(61.1982 6.60412 -4.10857e-18)
(61.3606 6.64033 -2.4947e-18)
(60.5068 6.6311 -7.69638e-18)
(56.7257 6.28039 8.79768e-18)
(46.628 5.0412 -3.97083e-18)
(26.8681 2.26099 0)
(4.75937 -0.202514 0)
(-1.4552 0.38657 1.39876e-18)
(40.9651 0.210196 1.42608e-19)
(44.0233 0.162475 6.86707e-20)
(44.0146 0.647594 -5.58411e-20)
(43.9363 0.679501 1.68734e-21)
(43.8615 1.0391 1.20039e-19)
(43.8066 1.18025 -2.16867e-21)
(43.7507 1.37621 0)
(43.6788 1.53104 -1.08995e-19)
(43.6247 1.63376 -5.05605e-21)
(43.58 1.69538 -1.17468e-21)
(43.5558 1.71178 2.61972e-19)
(43.5946 1.7161 -1.69903e-19)
(43.655 1.68948 3.00252e-21)
(43.744 1.61926 1.5315e-19)
(43.8744 1.52713 0)
(44.0412 1.43883 0)
(44.2576 1.33878 3.51166e-19)
(44.5335 1.22939 5.92418e-19)
(44.8589 1.13593 0)
(45.2419 1.05841 -4.44456e-19)
(45.6904 0.996406 -5.68115e-19)
(46.1703 0.958186 -1.93516e-19)
(46.6861 0.944928 2.09801e-19)
(47.272 0.961734 8.46532e-19)
(47.8986 1.05669 3.39871e-19)
(48.5887 1.25873 4.66518e-19)
(49.287 1.48276 -1.59858e-18)
(49.958 1.67284 -1.31868e-18)
(50.6931 1.87253 1.64759e-18)
(51.4779 2.08493 -2.00102e-18)
(52.2796 2.32339 0)
(53.0341 2.59514 0)
(53.7195 2.87056 8.57603e-20)
(54.3725 3.13101 -2.00267e-18)
(55.0755 3.41113 2.48942e-18)
(55.9257 3.73541 4.468e-18)
(56.7653 4.05971 -1.68806e-18)
(57.5689 4.32284 -4.13428e-18)
(58.3163 4.55509 -4.83026e-18)
(59.0973 4.77686 -2.91115e-18)
(59.9932 5.01834 -1.54774e-19)
(60.9222 5.2825 3.58024e-18)
(61.2765 5.43017 0)
(60.9413 5.53203 2.61269e-18)
(58.9074 5.49068 3.01951e-18)
(52.7102 4.94691 3.44911e-18)
(38.936 3.42263 1.1791e-17)
(14.6959 0.415471 -4.38551e-18)
(1.18111 -0.01245 0)
(-1.9597 0.37033 0)
(41.251 0.1664 2.97336e-20)
(44.309 0.259162 -1.07987e-19)
(44.2765 0.776641 5.76738e-20)
(44.1618 0.831892 -1.46053e-19)
(44.0555 1.17499 -6.95808e-20)
(43.977 1.29369 -2.40521e-23)
(43.8968 1.48503 2.73646e-21)
(43.8173 1.60581 1.01671e-19)
(43.7412 1.70678 7.86483e-21)
(43.6793 1.76931 1.19402e-20)
(43.6203 1.78639 -1.20159e-19)
(43.593 1.77393 -1.76433e-20)
(43.5991 1.72139 -1.9402e-19)
(43.6515 1.62721 -2.73903e-19)
(43.7548 1.48386 5.70425e-20)
(43.9118 1.32665 -6.3678e-20)
(44.1238 1.17139 0)
(44.4031 1.00502 -4.77798e-19)
(44.7463 0.84264 0)
(45.1494 0.701835 0)
(45.6158 0.581711 0)
(46.1269 0.488888 -3.8308e-19)
(46.664 0.446562 1.33812e-18)
(47.2676 0.435607 -1.1447e-18)
(47.9316 0.417415 0)
(48.5504 0.363656 -4.70791e-19)
(49.2343 0.371934 -1.68562e-18)
(50.0088 0.489873 -2.72038e-18)
(50.75 0.654049 -2.50042e-18)
(51.4797 0.865702 1.97621e-18)
(52.2075 1.1035 -2.43214e-18)
(52.9652 1.34452 1.41082e-18)
(53.8138 1.60302 3.53447e-18)
(54.7274 1.89892 0)
(55.6212 2.20787 2.55809e-18)
(56.3708 2.4812 -5.97501e-18)
(57.1173 2.73458 -1.21032e-19)
(57.8752 3.02826 4.09007e-18)
(58.6775 3.34626 2.4058e-18)
(59.4398 3.66671 0)
(60.1576 3.97667 3.2295e-18)
(60.7434 4.24286 -3.61768e-18)
(60.8013 4.32763 8.39027e-18)
(59.9945 4.46791 0)
(56.3872 4.30336 -1.19768e-17)
(47.1987 3.58075 3.30645e-18)
(28.9504 1.79311 -3.82606e-18)
(6.52028 -0.0980829 -4.27385e-18)
(-0.960692 0.507956 9.50723e-18)
(-2.05764 0.443238 1.00367e-20)
(41.4815 0.118043 -1.34265e-19)
(44.6959 0.20807 1.6748e-19)
(44.6893 0.701289 -1.6975e-19)
(44.5939 0.806969 3.18674e-19)
(44.4807 1.22267 -1.77787e-19)
(44.368 1.3933 1.04884e-20)
(44.2413 1.63419 -9.46233e-20)
(44.0844 1.8158 0)
(43.9366 1.92689 -1.03474e-19)
(43.7866 1.99609 1.33114e-19)
(43.6489 1.99958 2.06758e-21)
(43.5504 1.9382 -1.4228e-20)
(43.489 1.83053 1.95016e-19)
(43.463 1.68753 5.86972e-20)
(43.4967 1.48965 2.58556e-19)
(43.6 1.25045 5.47081e-20)
(43.765 0.991266 0)
(44.0078 0.742301 4.75658e-19)
(44.326 0.483564 1.15306e-18)
(44.7168 0.235974 0)
(45.1727 0.0233167 0)
(45.6934 -0.174562 0)
(46.2716 -0.33994 -1.2598e-18)