/*--------------------------------*- C++ -*----------------------------------*\
| =========                 |                                                 |
| \\      /  F ield         | OpenFOAM: The Open Source CFD Toolbox           |
|  \\    /   O peration     | Version:  v1912                                 |
|   \\  /    A nd           | Website:  www.openfoam.com                      |
|    \\/     M anipulation  |                                                 |
\*---------------------------------------------------------------------------*/
FoamFile
{
    version     2.0;
    format      ascii;
    class       volScalarField;
    location    "0.19";
    object      p;
}
// * * * * * * * * * * * * * * * * * * * * * * * * * * * * * * * * * * * * * //

dimensions      [0 2 -2 0 0 0 0];


internalField   nonuniform List<scalar> 
6600
(
47.3682
42.4908
40.0109
38.526
37.8914
37.6246
37.5345
37.7994
38.5941
39.7814
41.284
43.1311
45.4274
48.1241
51.2053
54.6948
58.5794
62.8925
67.6155
72.7479
78.2705
84.1345
90.2637
96.5758
103.244
110.13
117.031
123.816
130.418
136.711
142.552
147.793
152.23
155.603
157.668
158.085
156.435
152.374
145.535
135.442
121.64
103.596
80.6137
52.0517
17.2725
-24.5224
-73.5217
-130.615
-197.047
-264.635
43.7866
38.5698
36.5906
34.7251
33.6122
32.9785
32.5208
32.4546
32.8095
33.7204
34.9823
36.5709
38.4846
40.7922
43.4998
46.5635
49.9922
53.8106
57.9954
62.5422
67.4254
72.616
78.1149
83.6337
89.127
94.8683
100.724
106.332
111.6
116.496
120.829
124.356
126.9
128.24
128.119
126.178
122.006
115.255
105.543
92.3808
75.2676
53.7075
27.0135
-5.41478
-44.2043
-90.1468
-143.388
-204.15
-272.795
-340.483
38.8755
33.0705
31.8861
29.7275
28.3306
27.3773
26.7607
26.5659
26.6861
27.2169
28.1378
29.4862
31.1477
33.1363
35.4983
38.2034
41.2536
44.6392
48.3411
52.3455
56.6141
61.1239
65.8451
70.6323
75.3335
80.0176
84.614
88.9495
92.8817
96.2478
98.8864
100.597
101.144
100.281
97.7623
93.2708
86.3969
76.7786
64.0343
47.6811
27.1999
2.10368
-28.1222
-64.0377
-106.236
-155.429
-211.782
-274.569
-342.558
-406.461
32.8912
26.6092
25.9777
23.4958
21.9472
20.7969
20.0343
19.6614
19.718
20.0011
20.6428
21.6697
23.0702
24.8195
26.8698
29.2412
31.9219
34.8881
38.1171
41.5793
45.2306
49.0362
53.0177
57.0201
60.8125
64.4327
67.8354
70.8311
73.2705
75.0557
75.9886
75.8003
74.2661
71.155
66.202
59.0869
49.4548
36.9509
21.1824
1.70724
-21.9448
-50.2187
-83.4889
-122.201
-166.849
-218.057
-275.837
-338.703
-404.199
-461.99
25.9279
19.2142
18.811
16.0161
14.4284
13.1294
12.2447
11.7431
11.5935
11.7562
12.1654
12.9227
14.0411
15.4634
17.1878
19.1958
21.4582
23.9626
26.6699
29.5436
32.5345
35.567
38.6282
41.7117
44.6508
47.2428
49.4041
51.0686
52.0776
52.2379
51.3917
49.3205
45.7579
40.4442
33.1238
23.5088
11.259
-3.96323
-22.4982
-44.7269
-71.0412
-101.78
-137.226
-177.72
-223.615
-275.308
-332.818
-394.473
-456.045
-505.917
18.1182
10.8968
10.4168
7.31615
5.77033
4.34216
3.25401
2.53176
2.16297
2.16459
2.41366
2.8894
3.65536
4.71109
6.02834
7.58342
9.35195
11.3082
13.4106
15.6203
17.8976
20.1565
22.364
24.4397
26.2866
27.7992
28.8148
29.1599
28.7015
27.3089
24.7834
20.8876
15.3856
8.02828
-1.44169
-13.3161
-27.8771
-45.3954
-66.1771
-90.524
-118.716
-151.004
-187.585
-228.685
-274.557
-325.467
-381.216
-440.154
-496.582
-537.137
9.03832
1.53422
0.85507
-2.55664
-4.18472
-5.59771
-6.81107
-7.73962
-8.36487
-8.68192
-8.74836
-8.60559
-8.2262
-7.642
-6.83061
-5.82122
-4.65456
-3.34357
-1.92788
-0.462637
1.01725
2.43214
3.70736
4.79325
5.58297
5.95039
5.76074
4.85827
3.06931
0.190208
-3.9416
-9.5113
-16.751
-25.9129
-37.2363
-50.946
-67.2959
-86.5274
-108.856
-134.501
-163.665
-196.491
-233.087
-273.603
-318.239
-367.271
-420.321
-475.309
-525.776
-556.265
-1.53743
-8.92734
-9.86538
-13.4865
-15.1689
-16.8203
-18.2233
-19.3305
-20.2571
-20.9672
-21.4435
-21.742
-21.852
-21.7947
-21.577
-21.2259
-20.7554
-20.1743
-19.529
-18.8672
-18.2304
-17.6888
-17.2997
-17.1899
-17.4834
-18.2366
-19.5787
-21.7227
-24.8363
-29.0402
-34.5336
-41.5431
-50.2606
-60.8753
-73.587
-88.6254
-106.182
-126.411
-149.49
-175.572
-204.769
-237.161
-272.788
-311.71
-354.071
-400.211
-449.943
-500.357
-544.398
-565.553
-13.9078
-20.6663
-21.7652
-25.5413
-27.2536
-29.1432
-30.7824
-32.2463
-33.4816
-34.6458
-35.6953
-36.4871
-37.1788
-37.7709
-38.244
-38.6402
-38.9314
-39.1611
-39.3551
-39.551
-39.8048
-40.1845
-40.7628
-41.6115
-42.8578
-44.6406
-47.0935
-50.3317
-54.5186
-59.8709
-66.5476
-74.6928
-84.4809
-96.1019
-109.732
-125.51
-143.585
-164.101
-187.16
-212.846
-241.228
-272.318
-306.095
-342.579
-381.871
-424.247
-469.865
-515.754
-554.472
-569.105
-27.5686
-33.6732
-34.853
-38.5535
-40.463
-42.6703
-44.6507
-46.4923
-48.2311
-49.8151
-51.2948
-52.8675
-54.275
-55.5867
-56.8689
-58.0608
-59.1991
-60.3006
-61.3716
-62.4603
-63.6092
-64.875
-66.3126
-68.0495
-70.2281
-72.941
-76.3062
-80.4904
-85.6346
-91.8474
-99.2954
-108.175
-118.634
-130.793
-144.765
-160.696
-178.695
-198.82
-221.142
-245.71
-272.533
-301.596
-332.859
-366.259
-401.788
-440.007
-480.42
-521.012
-555.428
-568.239
-42.4866
-47.8655
-49.0037
-52.5915
-54.6388
-57.1338
-59.5428
-61.8247
-64.0654
-66.4363
-68.6301
-70.7144
-72.9497
-75.1705
-77.2857
-79.3553
-81.3958
-83.3984
-85.3793
-87.3676
-89.4074
-91.5579
-93.8892
-96.4749
-99.4147
-102.845
-106.919
-111.747
-117.444
-124.188
-132.122
-141.349
-151.989
-164.166
-177.994
-193.537
-210.85
-229.994
-250.996
-273.848
-298.528
-324.979
-353.118
-382.891
-414.298
-447.554
-481.45
-514.079
-539.818
-552.353
-58.3236
-62.9662
-64.0156
-67.5287
-69.7612
-72.6454
-75.4302
-78.3009
-81.165
-84.0374
-87.2074
-90.3105
-93.3522
-96.3922
-99.4465
-102.469
-105.444
-108.379
-111.276
-114.151
-117.034
-119.972
-123.02
-126.274
-129.853
-133.856
-138.378
-143.573
-149.591
-156.51
-164.443
-173.546
-183.934
-195.687
-208.853
-223.501
-239.676
-257.368
-276.565
-297.245
-319.338
-342.745
-367.329
-392.852
-419.886
-447.307
-473.379
-494.597
-506.053
-515.257
-74.4592
-78.6339
-79.6457
-83.0115
-85.3588
-88.6654
-91.9942
-95.4241
-99.1492
-102.962
-106.781
-110.79
-114.931
-119.024
-123.089
-127.111
-131.076
-134.978
-138.807
-142.565
-146.261
-149.943
-153.677
-157.524
-161.525
-165.78
-170.465
-175.686
-181.542
-188.202
-195.794
-204.399
-214.098
-224.964
-237.073
-250.447
-265.065
-280.92
-297.983
-316.177
-335.403
-355.492
-376.151
-397.462
-419.05
-439.791
-458.087
-470.823
-474.513
-477.705
-90.7514
-94.1691
-95.2956
-98.7582
-101.407
-105.102
-109.049
-113.238
-117.642
-122.437
-127.401
-132.463
-137.589
-142.798
-147.993
-153.12
-158.159
-163.072
-167.849
-172.474
-176.94
-181.266
-185.478
-189.658
-193.91
-198.284
-202.847
-207.763
-213.2
-219.25
-226.024
-233.658
-242.256
-251.891
-262.579
-274.326
-287.133
-300.944
-315.669
-331.224
-347.475
-364.189
-381.223
-398.336
-414.739
-429.454
-440.931
-447.859
-453.833
-454.538
-106.83
-109.43
-110.57
-114.174
-117.203
-121.458
-125.958
-131.1
-136.518
-142.208
-148.23
-154.506
-160.904
-167.327
-173.742
-180.094
-186.3
-192.307
-198.096
-203.625
-208.868
-213.817
-218.498
-222.951
-227.218
-231.375
-235.559
-239.875
-244.429
-249.409
-255.004
-261.331
-268.483
-276.516
-285.496
-295.434
-306.261
-317.896
-330.264
-343.237
-356.665
-370.33
-384.088
-397.42
-409.625
-419.997
-427.378
-430.848
-434.523
-435.665
-121.875
-123.524
-124.936
-128.771
-132.273
-137.297
-142.668
-148.452
-154.976
-161.94
-169.226
-176.746
-184.476
-192.293
-200.107
-207.808
-215.311
-222.538
-229.428
-235.921
-241.96
-247.507
-252.541
-257.091
-261.23
-265.03
-268.563
-271.955
-275.394
-279.043
-283.054
-287.619
-292.908
-299.064
-306.128
-314.065
-322.84
-332.379
-342.547
-353.218
-364.214
-375.234
-386.066
-396.399
-405.512
-412.407
-416.331
-420.453
-421.441
-422.667
-135.208
-136.264
-137.967
-142.048
-146.091
-151.705
-157.989
-165.01
-172.639
-180.87
-189.504
-198.504
-207.758
-217.13
-226.504
-235.736
-244.732
-253.365
-261.528
-269.127
-276.086
-282.328
-287.801
-292.505
-296.461
-299.698
-302.344
-304.564
-306.485
-308.311
-310.337
-312.818
-315.969
-319.923
-324.788
-330.637
-337.41
-344.968
-353.225
-362.062
-370.956
-379.665
-388.245
-396.174
-402.685
-407.016
-409.781
-411.732
-412.908
-413.585
-146.132
-146.607
-148.879
-153.428
-158.082
-164.727
-171.787
-179.956
-188.906
-198.489
-208.72
-219.355
-230.262
-241.373
-252.521
-263.547
-274.286
-284.564
-294.232
-303.147
-311.203
-318.28
-324.272
-329.112
-332.835
-335.51
-337.199
-338.008
-338.181
-337.996
-337.7
-337.619
-338.081
-339.43
-341.877
-345.46
-350.174
-356.006
-362.892
-370.102
-377.134
-384.218
-390.931
-396.624
-400.688
-403.101
-405.303
-406.236
-407.297
-407.588
-153.95
-154.518
-157.321
-162.418
-167.769
-175.344
-183.511
-192.736
-203.051
-214.226
-225.991
-238.41
-251.276
-264.38
-277.572
-290.656
-303.419
-315.641
-327.107
-337.655
-347.115
-355.324
-362.136
-367.439
-371.168
-373.314
-373.946
-373.28
-371.491
-368.816
-365.657
-362.493
-359.864
-358.168
-357.672
-358.651
-361.303
-365.757
-371.289
-377.021
-383.121
-389.158
-394.052
-397.308
-399.075
-400.702
-401.629
-402.606
-403.508
-403.745
-157.83
-159.451
-162.791
-168.474
-174.636
-183.212
-192.419
-203.108
-214.706
-227.421
-241.072
-255.408
-270.278
-285.6
-301.093
-316.527
-331.657
-346.222
-359.93
-372.524
-383.782
-393.504
-401.468
-407.479
-411.392
-413.228
-413.065
-410.937
-407.044
-401.754
-395.477
-388.747
-382.176
-376.515
-372.438
-370.333
-370.392
-373.067
-377.392
-382.967
-389.179
-394.285
-397.258
-398.344
-398.921
-399.235
-399.801
-400.551
-401.242
-401.496
-157.853
-161.102
-165.225
-171.762
-178.602
-188.184
-198.283
-210.176
-223.432
-237.686
-253.034
-269.427
-286.601
-304.315
-322.379
-340.51
-358.387
-375.713
-392.145
-407.315
-420.889
-432.605
-442.244
-449.557
-454.299
-456.315
-455.546
-452.093
-446.184
-438.069
-428.167
-417.088
-405.777
-395.26
-386.483
-380.134
-376.691
-377.262
-381.239
-387.724
-394.332
-398.688
-400.575
-400.697
-400.066
-399.645
-399.42
-399.364
-399.471
-399.696
-154.154
-159.36
-164.336
-171.776
-179.571
-190.002
-201.082
-214.133
-228.616
-244.53
-261.79
-280.179
-299.636
-319.933
-340.81
-361.932
-382.956
-403.498
-423.156
-441.496
-458.062
-472.494
-484.469
-493.65
-499.69
-502.368
-501.639
-497.378
-489.62
-478.699
-465.074
-449.427
-432.585
-415.692
-400.352
-388.184
-380.149
-377.579
-380.843
-388.487
-396.651
-401.883
-403.715
-403.555
-402.418
-400.713
-399.095
-397.91
-397.286
-397.112
-147.386
-154.668
-160.096
-168.342
-177.283
-188.491
-200.476
-214.762
-230.385
-247.678
-266.597
-287.072
-308.882
-331.827
-355.683
-380.063
-404.593
-428.814
-452.248
-474.389
-494.686
-512.596
-527.665
-539.55
-547.852
-552.135
-552.131
-547.593
-538.596
-525.259
-507.946
-487.167
-463.852
-439.502
-415.904
-395.19
-379.381
-371.288
-373.199
-382.864
-394.489
-402.197
-404.898
-404.313
-402.682
-400.189
-397.471
-395.292
-393.955
-393.277
-137.989
-147.285
-153.071
-162.264
-171.916
-183.81
-196.608
-211.741
-228.447
-247.072
-267.552
-289.876
-313.92
-339.528
-366.431
-394.265
-422.599
-450.92
-478.681
-505.278
-530.047
-552.327
-571.497
-587.036
-598.381
-605.001
-606.59
-602.988
-593.65
-578.503
-557.797
-532.169
-502.493
-469.709
-435.341
-402.565
-375.452
-359.914
-358.93
-369.238
-384.338
-396.768
-401.916
-402.217
-400.802
-398.448
-395.507
-392.783
-390.92
-389.6
-127.322
-137.6
-144.078
-153.809
-163.732
-175.967
-189.557
-205.383
-222.886
-242.578
-264.402
-288.435
-314.576
-342.689
-372.575
-403.919
-436.244
-468.996
-501.544
-533.206
-563.232
-590.805
-615.096
-635.337
-650.895
-661.212
-665.728
-663.888
-655.286
-639.561
-616.636
-586.738
-550.262
-507.876
-462.152
-415.959
-374.524
-346.848
-339.174
-347.832
-366.118
-382.36
-394.67
-401.185
-402.691
-401.023
-398.034
-394.809
-392.373
-390.62
-115.095
-126.881
-133.163
-143.52
-153.733
-165.855
-179.741
-195.872
-213.898
-234.443
-257.355
-282.738
-310.702
-341.118
-373.833
-408.591
-444.976
-482.374
-520.097
-557.368
-593.321
-627.032
-657.501
-683.717
-704.789
-719.858
-728.297
-729.67
-723.401
-708.756
-684.934
-651.754
-609.794
-560.015
-502.969
-440.553
-380.766
-340.226
-324.005
-328.764
-349.556
-373.237
-393.203
-404.944
-409.071
-408.066
-404.624
-400.84
-398.107
-396.528
-103.596
-114.86
-121.497
-131.764
-141.925
-154.076
-167.795
-183.846
-202.124
-222.937
-246.483
-272.907
-302.362
-334.737
-370.058
-408.067
-448.401
-490.486
-533.584
-576.835
-619.311
-659.978
-697.668
-731.103
-759.008
-780.372
-794.498
-800.644
-797.97
-785.927
-763.47
-729.857
-685.124
-628.341
-558.006
-481.829
-410.427
-355.8
-325.882
-322.472
-341.462
-369.384
-393.304
-407.939
-413.525
-412.409
-409.244
-405.757
-403.683
-402.863
-93.7969
-102.392
-110.026
-119.722
-129.323
-141.302
-154.598
-170.168
-188.12
-208.913
-232.687
-259.581
-289.976
-323.806
-361.272
-402.263
-446.381
-493.072
-541.605
-591.084
-640.526
-688.805
-734.62
-776.382
-812.513
-841.683
-862.797
-875.077
-877.812
-870.384
-852.349
-820.384
-774.039
-709.785
-631.31
-547.093
-470.9
-406.529
-366.917
-353.499
-358.311
-375.508
-392.861
-405.352
-410.612
-410.381
-408.425
-406.568
-405.842
-406.048
-89.4977
-90.5845
-98.8935
-107.533
-116.768
-128.204
-140.878
-155.883
-173.099
-193.276
-216.629
-243.502
-274.249
-308.978
-347.956
-391.393
-438.985
-490.144
-544.08
-599.896
-656.623
-713.067
-767.646
-818.623
-864.195
-902.722
-932.438
-952.986
-963.307
-961.918
-948.458
-920.705
-870.603
-802.084
-722.568
-639.194
-557.551
-492.683
-447.656
-420.322
-408.032
-406.762
-410.343
-412.629
-411.543
-408.708
-406.223
-405.5
-405.96
-407.002
-105.692
-82.8833
-88.9843
-95.9609
-105.101
-115.906
-127.822
-141.934
-158.265
-177.63
-200.251
-226.518
-257.051
-292.15
-332.055
-377.141
-427.489
-482.613
-541.613
-603.713
-667.865
-732.803
-796.109
-856.231
-911.744
-961.184
-1001.04
-1031.32
-1051.25
-1056.22
-1044.16
-1021.7
-973.209
-903.978
-827.309
-746.474
-672.07
-606.626
-553.429
-512.436
-482.648
-461.683
-446.018
-432.876
-421.665
-412.134
-406.691
-405.925
-407.012
-408.5
60.9127
56.0974
53.6778
52.2599
51.7169
51.5682
51.6671
52.1601
53.2303
54.7603
56.6708
58.9726
61.7847
65.0729
68.8076
73.0272
77.716
82.9067
88.5981
94.7674
101.414
108.493
115.94
123.684
131.801
140.261
148.801
157.289
165.767
174.115
182.136
189.637
196.458
202.425
207.263
210.703
212.412
212.024
209.158
203.401
194.298
181.327
163.955
141.538
113.504
79.1381
37.9808
-10.3778
-68.7689
-126.97
57.4263
52.351
50.4599
48.7091
47.7461
47.2771
47.0504
47.2515
47.9371
49.2197
50.9239
53.0192
55.5105
58.4666
61.8803
65.7325
70.0293
74.7908
80.007
85.6537
91.7252
98.1919
105.007
112.069
119.235
126.588
134.137
141.591
148.779
155.711
162.264
168.15
173.178
177.181
179.908
181.049
180.253
177.18
171.44
162.597
150.176
133.633
112.442
85.972
53.6344
14.6811
-31.1175
-83.8654
-145.297
-205.019
52.6827
47.1146
46.0448
44.0414
42.8497
42.1174
41.7957
41.9072
42.4213
43.3889
44.804
46.7213
49.0448
51.7608
54.9065
58.4843
62.4864
66.9037
71.723
76.9209
82.4751
88.3509
94.5114
100.846
107.221
113.645
120.06
126.333
132.303
137.833
142.774
146.898
150.001
151.902
152.318
150.956
147.48
141.525
132.716
120.629
104.778
84.6379
59.7134
29.4329
-6.77489
-49.5845
-99.1325
-154.89
-216.677
-274.228
46.9674
40.9689
40.4957
38.1912
36.9139
36.0399
35.617
35.6236
36.1221
36.9166
38.1432
39.8252
41.9553
44.5078
47.4378
50.7797
54.5102
58.6081
63.056
67.8175
72.8571
78.1275
83.6223
89.285
94.8535
100.275
105.6
110.683
115.287
119.318
122.612
124.931
126.059
125.776
123.828
119.91
113.694
104.834
92.9606
77.6649
58.4981
35.0017
6.74375
-26.7512
-65.9749
-111.518
-163.422
-220.376
-280.896
-334.224
40.3443
33.9547
33.7636
31.1704
29.8985
28.924
28.411
28.3412
28.7028
29.455
30.526
32.0174
33.9424
36.2537
38.9534
42.0278
45.4361
49.1746
53.2126
57.4975
61.9867
66.6152
71.3454
76.1355
80.8873
85.4157
89.6075
93.4236
96.7213
99.2729
100.907
101.415
100.582
98.1828
93.9254
87.5388
78.716
67.1133
52.3961
34.2084
12.1736
-14.0867
-44.924
-80.7142
-121.827
-168.692
-221.276
-278.05
-336.237
-383.763
32.8952
26.0487
25.813
22.9687
21.7653
20.6918
20.0279
19.7934
19.9866
20.6532
21.6302
22.9167
24.5721
26.6033
28.9945
31.7072
34.7238
38.0166
41.5554
45.2885
49.1658
53.1108
57.0949
61.0627
64.8553
68.3816
71.5456
74.1377
76.0236
77.0938
77.1328
75.9216
73.2339
68.8259
62.4503
53.8284
42.6692
28.693
11.6117
-8.87867
-33.0779
-61.2653
-93.697
-130.649
-172.4
-219.253
-271.166
-326.507
-381.075
-421.439
24.2482
17.139
16.656
13.5765
12.3086
11.2877
10.548
10.1756
10.1776
10.544
11.2967
12.3351
13.6925
15.3524
17.3212
19.5873
22.1088
24.8604
27.8126
30.915
34.1159
37.3309
40.4865
43.5592
46.4513
48.97
50.9941
52.4231
53.0662
52.727
51.2383
48.3913
43.9949
37.8236
29.5989
19.0916
6.06793
-9.72905
-28.5304
-50.5635
-76.0455
-105.174
-138.121
-175.084
-216.319
-262.12
-312.114
-364.679
-414.747
-446.815
14.2007
7.14037
6.36897
3.10626
1.79909
0.58394
-0.289629
-0.788076
-1.01336
-0.951115
-0.573773
0.113221
1.07135
2.29149
3.76712
5.47494
7.40958
9.53924
11.8258
14.2286
16.6972
19.1517
21.5409
23.7602
25.6507
27.1482
28.1476
28.4266
27.8235
26.1981
23.3653
19.1311
13.2847
5.62159
-4.0466
-15.9398
-30.2771
-47.2395
-67.0027
-89.7415
-115.609
-144.724
-177.184
-213.108
-252.717
-296.431
-343.913
-392.783
-437.286
-460.974
2.31678
-4.20379
-5.11975
-8.53297
-9.85401
-11.2558
-12.3138
-13.109
-13.6004
-13.8814
-13.9851
-13.7363
-13.2744
-12.6072
-11.7227
-10.6446
-9.3705
-7.94016
-6.37804
-4.72321
-3.028
-1.37144
0.148064
1.48539
2.53932
3.12914
3.09822
2.33918
0.702582
-1.99499
-5.94879
-11.3337
-18.2922
-26.9937
-37.6479
-50.4113
-65.4292
-82.8633
-102.847
-125.493
-150.892
-179.108
-210.189
-244.233
-281.405
-321.99
-366.129
-410.839
-449.649
-466.17
-11.0627
-16.9256
-17.9
-21.219
-22.7114
-24.3769
-25.7236
-26.8333
-27.7342
-28.4112
-28.857
-29.2746
-29.4475
-29.3984
-29.201
-28.8146
-28.2675
-27.5798
-26.7726
-25.8893
-24.9675
-24.0712
-23.2617
-22.6961
-22.5477
-22.8616
-23.7119
-25.3034
-27.8217
-31.3895
-36.1436
-42.2557
-49.8998
-59.2279
-70.3458
-83.3855
-98.4887
-115.752
-135.256
-157.079
-181.276
-207.867
-236.846
-268.227
-302.189
-339.135
-378.657
-418.616
-452.797
-465.515
-25.9093
-30.9614
-31.8762
-35.0489
-36.6428
-38.5575
-40.2811
-41.7774
-43.1195
-44.4767
-45.5721
-46.441
-47.2978
-48.0348
-48.5613
-48.9424
-49.1746
-49.2608
-49.2273
-49.1148
-48.963
-48.833
-48.823
-48.9783
-49.4059
-50.2973
-51.8254
-54.0817
-57.1513
-61.2065
-66.4256
-72.939
-80.851
-90.2711
-101.345
-114.163
-128.781
-145.274
-163.702
-184.098
-206.473
-230.811
-257.075
-285.236
-315.254
-347.726
-381.573
-415.095
-443.124
-455.522
-41.6848
-46.0576
-46.875
-49.9342
-51.6679
-53.9316
-55.9837
-58.0145
-59.923
-61.6997
-63.631
-65.4152
-67.0193
-68.4793
-69.8278
-71.0273
-72.0629
-72.942
-73.6808
-74.3128
-74.8593
-75.3703
-75.9027
-76.6144
-77.6645
-79.085
-80.9473
-83.4434
-86.7753
-91.0336
-96.3172
-102.75
-110.462
-119.576
-130.135
-142.2
-155.848
-171.102
-187.96
-206.426
-226.484
-248.087
-271.131
-295.448
-321.312
-348.341
-375.212
-399.362
-416.161
-427.39
-57.9211
-61.8539
-62.6404
-65.5591
-67.3806
-70.0171
-72.5637
-75.0696
-77.7623
-80.4117
-82.9568
-85.5302
-88.1074
-90.5123
-92.7563
-94.8351
-96.731
-98.4356
-99.9509
-101.298
-102.513
-103.645
-104.755
-105.881
-107.117
-108.632
-110.615
-113.168
-116.351
-120.326
-125.26
-131.264
-138.406
-146.736
-156.354
-167.31
-179.59
-193.191
-208.107
-224.297
-241.695
-260.196
-279.622
-299.934
-320.984
-341.857
-361.129
-375.667
-381.681
-388.08
-74.617
-77.7762
-78.6385
-81.6276
-83.7367
-86.7354
-89.8687
-93.0991
-96.4037
-99.9744
-103.54
-107.08
-110.573
-113.975
-117.234
-120.272
-123.083
-125.643
-127.939
-129.977
-131.764
-133.339
-134.738
-136.073
-137.49
-139.05
-140.8
-142.914
-145.608
-149.006
-153.203
-158.296
-164.4
-171.626
-179.975
-189.438
-200.048
-211.772
-224.529
-238.24
-252.801
-268.064
-283.825
-300.153
-316.229
-331.025
-343.359
-351.672
-356.647
-359.052
-91.3549
-93.7079
-94.5575
-97.6454
-100.093
-103.625
-107.275
-111.427
-115.701
-120.099
-124.699
-129.326
-133.93
-138.493
-142.873
-146.99
-150.818
-154.313
-157.445
-160.189
-162.554
-164.573
-166.286
-167.723
-168.927
-170.012
-171.225
-172.719
-174.555
-176.88
-179.89
-183.756
-188.556
-194.3
-201.052
-208.854
-217.632
-227.306
-237.819
-249.064
-260.892
-273.097
-285.554
-297.959
-309.781
-320.109
-327.778
-331.902
-337.099
-338.595
-107.329
-108.676
-109.793
-113.103
-116.022
-120.29
-124.773
-129.522
-134.901
-140.539
-146.333
-152.236
-158.11
-163.89
-169.503
-174.836
-179.807
-184.342
-188.384
-191.882
-194.806
-197.15
-198.926
-200.21
-201.161
-201.848
-202.297
-202.659
-203.209
-204.174
-205.704
-207.908
-210.928
-214.934
-219.935
-225.86
-232.692
-240.376
-248.768
-257.734
-267.135
-276.716
-286.31
-295.708
-304.283
-311.124
-315.484
-318.984
-321.147
-322.959
-121.816
-122.589
-123.926
-127.476
-130.928
-135.795
-141.201
-147.216
-153.649
-160.533
-167.682
-174.96
-182.296
-189.547
-196.568
-203.32
-209.643
-215.395
-220.497
-224.882
-228.483
-231.263
-233.239
-234.442
-234.888
-234.643
-233.936
-233.029
-232.049
-231.179
-230.685
-230.862
-231.925
-233.908
-236.871
-240.884
-245.853
-251.621
-258.112
-265.247
-272.576
-279.864
-287.22
-294.205
-300.285
-304.734
-307.338
-309.921
-311.255
-312.518
-134.18
-134.218
-136.147
-140.179
-144.271
-150.179
-156.385
-163.558
-171.367
-179.598
-188.275
-197.24
-206.216
-215.13
-223.873
-232.265
-240.134
-247.332
-253.711
-259.169
-263.591
-266.874
-268.965
-269.892
-269.802
-268.838
-267.009
-264.449
-261.453
-258.398
-255.615
-253.37
-251.885
-251.474
-252.296
-254.266
-257.323
-261.439
-266.564
-272.084
-277.5
-283.136
-288.683
-293.576
-297.363
-299.869
-302.452
-303.694
-304.799
-305.436
-143.519
-143.617
-146.09
-150.665
-155.482
-162.368
-169.744
-178.017
-187.214
-197.13
-207.422
-218.111
-229.07
-240.001
-250.719
-261.026
-270.732
-279.684
-287.686
-294.522
-300.054
-304.145
-306.707
-307.715
-307.186
-305.135
-301.746
-297.382
-292.285
-286.704
-281.011
-275.687
-271.309
-268.159
-266.359
-266.1
-267.427
-270.226
-274.009
-277.979
-282.401
-287.033
-290.877
-293.541
-295.114
-296.752
-298.131
-299.346
-300.333
-300.692
-149.071
-150.129
-153.223
-158.362
-164.069
-171.991
-180.487
-190.347
-200.94
-212.42
-224.655
-237.398
-250.393
-263.55
-276.599
-289.238
-301.228
-312.344
-322.318
-330.894
-337.894
-343.131
-346.403
-347.538
-346.622
-343.833
-339.303
-333.082
-325.411
-316.79
-307.794
-299.028
-290.952
-284.176
-279.326
-276.556
-275.814
-277.116
-279.741
-283.306
-287.568
-291.23
-293.312
-294.108
-294.234
-294.665
-295.572
-296.691
-297.596
-297.938
-150.835
-153.402
-157.315
-163.332
-169.807
-178.829
-188.339
-199.49
-211.863
-225.09
-239.146
-253.996
-269.414
-285.064
-300.73
-316.097
-330.823
-344.558
-356.959
-367.828
-376.838
-383.728
-388.266
-390.27
-389.616
-386.257
-380.274
-371.978
-361.779
-350.06
-337.277
-324.007
-311.329
-300.256
-291.365
-285.172
-281.902
-281.778
-284.013
-288.096
-292.42
-295.088
-296.03
-295.678
-295.166
-294.745
-294.978
-295.597
-296.182
-296.529
-148.78
-153.205
-158.046
-165.015
-172.492
-182.491
-193.145
-205.625
-219.422
-234.433
-250.633
-267.708
-285.556
-303.929
-322.533
-340.98
-358.873
-375.805
-391.36
-405.151
-416.768
-425.937
-432.288
-435.551
-435.466
-432.041
-425.425
-415.59
-402.806
-387.48
-370.255
-352.197
-334.147
-317.083
-302.574
-291.869
-285.257
-283.32
-285.488
-290.405
-295.347
-298.282
-299.143
-298.7
-297.595
-296.389
-295.413
-294.825
-294.624
-294.805
-143.399
-149.95
-155.3
-163.142
-171.967
-182.795
-194.472
-208.392
-223.518
-240.183
-258.247
-277.651
-298.13
-319.391
-341.167
-363.049
-384.593
-405.286
-424.606
-442.015
-457.029
-469.189
-478.201
-483.66
-485.182
-482.512
-475.531
-464.264
-449.081
-430.466
-409.012
-385.222
-360.215
-335.944
-314.24
-296.633
-284.499
-279.165
-281.195
-288.168
-295.189
-299.668
-301.365
-301.041
-299.287
-297.013
-294.762
-293.071
-292.209
-292.023
-135.216
-143.842
-149.616
-158.493
-168.119
-179.809
-192.474
-207.429
-223.825
-242.109
-262.1
-283.664
-306.644
-330.888
-356.03
-381.646
-407.231
-432.192
-455.925
-477.779
-497.086
-513.281
-525.874
-534.291
-538.013
-536.746
-530.381
-518.951
-502.284
-480.563
-454.214
-424.379
-392.421
-359.501
-327.805
-300.05
-279.083
-268.879
-270.625
-279.853
-290.126
-296.898
-300.04
-300.412
-298.508
-295.578
-292.677
-290.281
-288.811
-287.988
-125.536
-135.279
-141.789
-151.277
-161.212
-173.39
-187.07
-202.846
-220.331
-240.002
-261.634
-285.297
-310.799
-337.929
-366.445
-395.955
-425.898
-455.618
-484.383
-511.415
-535.951
-557.175
-574.338
-586.896
-594.263
-595.825
-591.172
-580.063
-562.447
-538.336
-508.336
-472.948
-432.85
-389.393
-346.061
-305.811
-273.109
-255.163
-253.643
-264.356
-278.477
-289.189
-295.193
-297.906
-297.874
-295.799
-292.713
-289.641
-287.491
-285.986
-114.074
-125.459
-131.765
-141.985
-152.306
-164.508
-178.618
-194.954
-213.233
-233.937
-257.044
-282.462
-310.229
-340.158
-371.999
-405.411
-439.886
-474.702
-509.016
-541.961
-572.569
-599.861
-622.939
-640.959
-653.036
-658.307
-656.383
-647.211
-630.311
-605.547
-572.51
-531.403
-483.512
-430.857
-374.948
-319.437
-270.987
-242.378
-235.174
-245.372
-263.703
-281.969
-294.682
-301.153
-302.429
-300.383
-296.953
-293.201
-290.25
-288.207
-103.245
-114.176
-120.766
-131.059
-141.397
-153.724
-167.765
-184.164
-202.903
-224.252
-248.3
-275.197
-304.931
-337.358
-372.358
-409.598
-448.624
-488.732
-528.996
-568.363
-605.808
-640.236
-670.428
-695.173
-713.422
-724.303
-727.156
-721.164
-706.027
-681.579
-647.336
-603.314
-550.119
-487.677
-415.916
-343.439
-285.009
-246.177
-229.855
-231.808
-252.005
-276.218
-294.131
-304.786
-308.124
-306.78
-303.098
-298.984
-296.022
-294.486
-93.8614
-102.431
-109.862
-119.61
-129.456
-141.703
-155.486
-171.575
-190.079
-211.602
-236.23
-264.033
-295.156
-329.639
-367.391
-408.277
-451.805
-497.285
-543.722
-589.933
-634.864
-677.279
-715.73
-748.627
-774.698
-792.632
-801.328
-800.107
-788.505
-766.5
-733.902
-689.221
-631.735
-558.981
-476.441
-392.684
-322.411
-271.418
-245.518
-242.965
-255.678
-275.431
-292.761
-303.57
-307.214
-306.48
-303.992
-300.981
-299.122
-298.534
-90.1951
-91.0045
-99.2158
-107.929
-117.369
-129.134
-142.336
-157.986
-175.931
-197.067
-221.591
-249.688
-281.593
-317.458
-357.319
-401.432
-449.261
-500.05
-552.839
-606.145
-659.047
-710.312
-758.001
-800.269
-835.512
-862.095
-878.655
-884.53
-878.704
-860.475
-829.866
-784.409
-720.99
-642.376
-556.618
-471.498
-390.123
-331.724
-297.457
-282.519
-282.079
-289.129
-298.13
-303.393
-304.738
-303.108
-301.068
-299.577
-299.221
-299.694
-106.066
-83.606
-89.685
-96.7467
-106.073
-117.322
-129.802
-144.638
-161.835
-182.341
-206.365
-234.101
-266.1
-302.743
-344.149
-390.606
-442.12
-497.642
-556.337
-616.864
-678.195
-738.746
-795.775
-847.688
-893.39
-930.591
-956.079
-970.972
-973.927
-959.954
-929.778
-887.001
-819.38
-739.127
-654.982
-568.354
-493.141
-432.145
-385.187
-352.788
-333.134
-322.112
-316.405
-311.809
-306.486
-301.778
-298.676
-297.848
-298.432
-299.549
-87.356
-72.0233
-78.7377
-86.6207
-96.3871
-107.249
-119.3
-133.451
-150.283
-170.016
-192.904
-220.14
-252.768
-290.779
-334.131
-383.326
-438.884
-500.486
-566.887
-637.372
-709.347
-780.561
-848.981
-912.168
-968.233
-1016.17
-1052.74
-1076.2
-1089.22
-1083.01
-1050.93
-989.883
-916.157
-832.277
-743.529
-659.467
-583.954
-518.318
-464.86
-422.874
-390.975
-366.496
-346.644
-329.409
-314.94
-304.102
-298.237
-297.6
-299.016
-300.252
-74.3741
-71.4242
-75.6426
-82.6842
-91.8504
-102.288
-114.615
-129.201
-146.725
-168.017
-193.216
-223.456
-259.704
-301.838
-350.459
-406.444
-470.105
-541.042
-617.375
-697.511
-780.338
-862.933
-942.192
-1015.49
-1081.21
-1135.23
-1174.17
-1194.69
-1196.5
-1169.86
-1119.85
-1053.61
-976.394
-891.761
-804.661
-721.763
-648.483
-584.164
-528.257
-480.607
-440.287
-406.201
-376.929
-351.734
-330.277
-313.337
-303.254
-299.856
-301.675
-303.187
-65.7328
-70.2695
-75.3557
-82.3832
-90.9197
-101.144
-114.307
-130.4
-150.472
-175.513
-205.428
-240.547
-281.752
-330.821
-388.862
-455.673
-530.04
-611.246
-699.245
-792.227
-887.75
-981.969
-1069.75
-1149.63
-1218.91
-1273.19
-1305.2
-1311.49
-1290.25
-1249.75
-1190.81
-1120.01
-1039.23
-956.405
-873.294
-793.705
-718.003
-649.239
-587.499
-532.752
-484.661
-442.669
-406.206
-375.006
-348.793
-327.723
-312.946
-305.707
-305.597
-308.22
-58.8966
-66.0752
-72.6577
-80.253
-89.105
-100.385
-114.998
-133.357
-156.405
-184.408
-218.34
-259.257
-308.312
-367.027
-435.373
-513.361
-601.011
-698.167
-803.568
-913.686
-1022.3
-1124.77
-1219.02
-1303.05
-1373.23
-1419.95
-1435.76
-1423.77
-1389.34
-1337.18
-1271.11
-1194.29
-1112.21
-1027.03
-941.197
-857.506
-778.362
-704.24
-636.656
-575.53
-521.017
-473.073
-431.509
-396.208
-366.982
-343.567
-326.065
-315.243
-311.722
-317.069
-52.5947
-59.3651
-66.5764
-74.8726
-84.5759
-97.3553
-113.267
-133.377
-158.859
-190.344
-229.561
-277.352
-334.584
-402.295
-482.156
-575.785
-683.437
-802.53
-927.536
-1052.4
-1172.66
-1284.75
-1386.9
-1474.1
-1535.13
-1560.84
-1559.45
-1533.13
-1486.73
-1423.66
-1350.22
-1267.56
-1179.67
-1089.15
-998.965
-910.737
-826.547
-747.5
-674.378
-607.852
-548.304
-495.859
-450.635
-412.572
-381.477
-356.881
-338.328
-325.982
-321.495
-326.731
-44.6477
-50.5682
-57.9142
-66.5989
-77.0915
-90.5538
-107.174
-128.891
-157.01
-193.076
-238.056
-292.109
-357.123
-435.821
-532.027
-648.144
-780.492
-922.253
-1065.64
-1205.63
-1339.3
-1464.21
-1569.99
-1644.63
-1682.37
-1689.82
-1670.47
-1630.25
-1571.47
-1499.24
-1416.45
-1326.87
-1232.45
-1136.67
-1041.43
-948.535
-859.681
-775.885
-698.286
-627.468
-564.09
-508.556
-460.911
-421.208
-389.214
-364.36
-346.053
-334.167
-329.735
-331.71
-34.8947
-40.5856
-47.1141
-55.3087
-65.7168
-78.6786
-95.9567
-119.749
-150.949
-191.336
-241.109
-301.812
-377.64
-473.023
-592.303
-734.137
-891.722
-1055.53
-1218.46
-1376.72
-1524.31
-1651.51
-1739.41
-1789.28
-1807.12
-1796.66
-1761.5
-1707.3
-1638.08
-1555.35
-1464.24
-1367.44
-1267.27
-1166.27
-1066.43
-969.228
-876.196
-788.652
-707.329
-633.389
-567.246
-509.476