/*--------------------------------*- C++ -*----------------------------------*\
| =========                 |                                                 |
| \\      /  F ield         | OpenFOAM: The Open Source CFD Toolbox           |
|  \\    /   O peration     | Version:  v1912                                 |
|   \\  /    A nd           | Website:  www.openfoam.com                      |
|    \\/     M anipulation  |                                                 |
\*---------------------------------------------------------------------------*/
FoamFile
{
    version     2.0;
    format      ascii;
    class       surfaceScalarField;
    location    "0.19";
    object      phi;
}
// * * * * * * * * * * * * * * * * * * * * * * * * * * * * * * * * * * * * * //

dimensions      [0 3 -1 0 0 0 0];
oriented        oriented;


internalField   nonuniform List<scalar> 
13060
(
0.00536909
0.988862
-0.994231
0.00674648
0.946587
-0.947964
0.00745729
0.90143
-0.902141
0.00802312
0.858457
-0.859023
0.008088
0.8189
-0.818965
0.00806382
0.781318
-0.781294
0.00790343
0.745119
-0.744958
0.00768214
0.710919
-0.710698
0.00734015
0.677984
-0.677642
0.00675614
0.646689
-0.646105
0.00623432
0.61641
-0.615888
0.00599659
0.587349
-0.587111
0.00577361
0.559673
-0.55945
0.00557252
0.533081
-0.53288
0.0054958
0.507557
-0.50748
0.00544661
0.483136
-0.483087
0.00541882
0.459659
-0.459631
0.00540481
0.437168
-0.437154
0.00538957
0.415651
-0.415636
0.00537558
0.395021
-0.395007
0.00535768
0.375347
-0.375329
0.00536297
0.356515
-0.35652
0.00559817
0.338362
-0.338597
0.00590329
0.321095
-0.3214
0.00600021
0.304873
-0.30497
0.00587894
0.289412
-0.289291
0.00572062
0.274423
-0.274265
0.00549513
0.260195
-0.25997
0.00517153
0.246795
-0.246471
0.00486207
0.234061
-0.233752
0.00459784
0.221974
-0.22171
0.00429123
0.210554
-0.210247
0.00392213
0.199777
-0.199408
0.00352505
0.189529
-0.189132
0.00311978
0.179844
-0.179439
0.00264461
0.170797
-0.170322
0.00211569
0.162317
-0.161788
0.00158529
0.154363
-0.153832
0.00103887
0.14689
-0.146344
0.000477262
0.139889
-0.139328
-6.83141e-05
0.133335
-0.132789
-0.000684972
0.127244
-0.126627
-0.00127629
0.121478
-0.120886
-0.00182787
0.116134
-0.115582
-0.00234215
0.111155
-0.11064
-0.00276429
0.106577
-0.106155
-0.00324075
0.101927
-0.10145
-0.00331497
0.098162
-0.0980877
-0.00242708
0.0893596
-0.0902475
0.0598874
-0.0623144
0.00574886
0.983113
0.00603322
0.946303
0.00573151
0.901732
0.00482771
0.859361
0.00422395
0.819504
0.00371136
0.781831
0.0029347
0.745895
0.0024375
0.711416
0.00211158
0.67831
0.00218579
0.646615
0.00213779
0.616458
0.00191461
0.587572
0.00174096
0.559847
0.00162678
0.533195
0.0014588
0.507725
0.00128643
0.483308
0.0011301
0.459815
0.000993637
0.437304
0.000869476
0.415775
0.000764755
0.395125
0.000657585
0.375454
0.000507899
0.356665
0.000110844
0.338759
-0.000498728
0.321705
-0.000822626
0.305197
-0.000845225
0.289435
-0.000935841
0.274514
-0.0010821
0.260341
-0.00113451
0.246847
-0.00123637
0.234163
-0.00147477
0.222213
-0.0017331
0.210812
-0.00196305
0.200007
-0.00222533
0.189791
-0.00255249
0.180171
-0.00287366
0.171119
-0.00318314
0.162627
-0.00351621
0.154696
-0.0038572
0.147231
-0.00418841
0.14022
-0.0045166
0.133663
-0.00477611
0.127503
-0.00499536
0.121697
-0.00515247
0.116291
-0.00523369
0.111236
-0.00520966
0.106553
-0.00517701
0.101894
-0.00455168
0.0975366
-0.00307471
0.0878827
0.0568126
0.0046779
0.978435
0.0050391
0.945942
0.00449625
0.902275
0.0033392
0.860518
0.00231865
0.820525
0.0014059
0.782744
0.00050695
0.746794
-0.000507755
0.712431
-0.00161225
0.679414
-0.00281785
0.64782
-0.00374623
0.617386
-0.00433952
0.588165
-0.00492376
0.560431
-0.00547636
0.533747
-0.00587415
0.508123
-0.00620855
0.483643
-0.00649847
0.460105
-0.00675433
0.43756
-0.00697688
0.415997
-0.00718413
0.395333
-0.00735458
0.375624
-0.00746418
0.356774
-0.00728069
0.338576
-0.00689
0.321314
-0.0068799
0.305187
-0.00711267
0.289667
-0.00722085
0.274622
-0.00732174
0.260442
-0.0075554
0.247081
-0.00774024
0.234348
-0.0078156
0.222288
-0.00791175
0.210908
-0.00805772
0.200153
-0.00819293
0.189927
-0.00828914
0.180268
-0.0084107
0.17124
-0.00855355
0.16277
-0.00866615
0.154808
-0.00875524
0.14732
-0.00882074
0.140286
-0.00883684
0.133679
-0.00878915
0.127455
-0.00867738
0.121585
-0.00847902
0.116093
-0.00818012
0.110937
-0.00777193
0.106145
-0.00726504
0.101387
-0.00604768
0.0963193
-0.00383204
0.085667
0.0529806
0.00399785
0.974437
0.00308684
0.946853
0.00147814
0.903883
-0.000257942
0.862254
-0.0019761
0.822243
-0.00354338
0.784311
-0.0048463
0.748097
-0.00581489
0.7134
-0.00656052
0.68016
-0.00716121
0.648421
-0.00779648
0.618021
-0.00843762
0.588807
-0.00891159
0.560905
-0.00938278
0.534219
-0.0098812
0.508621
-0.0103359
0.484097
-0.0107477
0.460517
-0.0111122
0.437925
-0.0114345
0.41632
-0.0117141
0.395612
-0.0119605
0.375871
-0.0122287
0.357043
-0.0127532
0.3391
-0.0133838
0.321945
-0.0136775
0.30548
-0.0137233
0.289713
-0.0138332
0.274732
-0.0139244
0.260534
-0.0138669
0.247023
-0.0138394
0.23432
-0.0139154
0.222364
-0.0139715
0.210964
-0.0139638
0.200146
-0.0139547
0.189918
-0.0139747
0.180288
-0.0139385
0.171204
-0.0138449
0.162676
-0.0137316
0.154695
-0.013578
0.147166
-0.0133633
0.140071
-0.0130777
0.133394
-0.0127041
0.127082
-0.0122321
0.121113
-0.0116616
0.115522
-0.0109691
0.110244
-0.0100725
0.105248
-0.00909504
0.10041
-0.00746457
0.0946888
-0.00457555
0.082778
0.0484051
0.00255319
0.971884
0.00136685
0.948039
-0.000611204
0.905861
-0.0022311
0.863874
-0.00415414
0.824166
-0.00583997
0.785997
-0.00738286
0.74964
-0.0091026
0.715119
-0.0108616
0.681919
-0.0125041
0.650063
-0.0138187
0.619336
-0.0149235
0.589911
-0.0159748
0.561957
-0.0168744
0.535118
-0.0175858
0.509333
-0.0182061
0.484718
-0.0187495
0.461061
-0.0192245
0.4384
-0.0196355
0.416731
-0.0199873
0.395964
-0.0202708
0.376154
-0.0204374
0.357209
-0.0202653
0.338928
-0.0199081
0.321587
-0.0198597
0.305432
-0.020057
0.289911
-0.0201239
0.274799
-0.020131
0.260541
-0.0202592
0.247151
-0.0203202
0.234381
-0.020211
0.222255
-0.0200742
0.210827
-0.0199639
0.200035
-0.0198068
0.189761
-0.0195644
0.180045
-0.0193117
0.170951
-0.0190363
0.162401
-0.0186872
0.154346
-0.0182663
0.146746
-0.0177717
0.139577
-0.0171852
0.132807
-0.0165095
0.126406
-0.0157349
0.120338
-0.0148337
0.114621
-0.0138144
0.109225
-0.0126475
0.104082
-0.0112812
0.0990436
-0.00914052
0.0925481
-0.00540511
0.0790426
0.0429999
0.00157967
0.970305
-0.000938931
0.950557
-0.00389701
0.90882
-0.00633243
0.866309
-0.00875832
0.826592
-0.0110522
0.788291
-0.0131096
0.751697
-0.0147183
0.716728
-0.0159298
0.68313
-0.0169169
0.651051
-0.0179514
0.62037
-0.0190118
0.590972
-0.0198518
0.562797
-0.0206777
0.535944
-0.0214733
0.510128
-0.0221954
0.48544
-0.0228431
0.461708
-0.0234149
0.438972
-0.023914
0.41723
-0.0243527
0.396403
-0.0247445
0.376546
-0.0251359
0.357601
-0.0257817
0.339574
-0.0265235
0.322329
-0.0268054
0.305714
-0.0267492
0.289854
-0.0267816
0.274831
-0.0268014
0.260561
-0.0265882
0.246938
-0.026358
0.234151
-0.0262269
0.222124
-0.02604
0.21064
-0.0257348
0.19973
-0.0253897
0.189415
-0.0250447
0.1797
-0.0246104
0.170517
-0.0240792
0.161869
-0.023483
0.15375
-0.0228079
0.14607
-0.0220393
0.138808
-0.0211733
0.131941
-0.0201914
0.125424
-0.0190916
0.119239
-0.017883
0.113412
-0.0165579
0.1079
-0.0151872
0.102711
-0.013367
0.0972234
-0.0107222
0.0899034
-0.00618063
0.074501
0.0368193
0.0006162
0.969688
-0.00257905
0.953753
-0.00574038
0.911981
-0.00840303
0.868972
-0.0110231
0.829212
-0.0133308
0.790598
-0.0157525
0.754119
-0.0181216
0.719097
-0.0203965
0.685405
-0.022558
0.653212
-0.0243199
0.622132
-0.0258627
0.592514
-0.0273663
0.5643
-0.0286733
0.537251
-0.029739
0.511194
-0.0306582
0.486359
-0.0314552
0.462505
-0.032149
0.439665
-0.0327385
0.417819
-0.0332242
0.396888
-0.0335964
0.376918
-0.0337995
0.357804
-0.0336056
0.33938
-0.033183
0.321907
-0.0330833
0.305614
-0.0332152
0.289986
-0.0331357
0.274752
-0.0329535
0.260378
-0.0329021
0.246887
-0.0327711
0.23402
-0.032419
0.221772
-0.0319862
0.210208
-0.031546
0.19929
-0.0310297
0.188899
-0.030389
0.179059
-0.0297009
0.169829
-0.028965
0.161133
-0.0281314
0.152916
-0.0271978
0.145137
-0.0261675
0.137778
-0.0250319
0.130806
-0.0238024
0.124194
-0.022484
0.11792
-0.0210487
0.111977
-0.0194933
0.106345
-0.0178791
0.101097
-0.0156679
0.0950123
-0.0124268
0.0866623
-0.00696743
0.0690416
0.0298519
-0.000327722
0.970016
-0.0048761
0.958301
-0.00902442
0.916129
-0.0127337
0.872681
-0.0159682
0.832446
-0.0189709
0.793601
-0.0214901
0.756638
-0.0234646
0.721072
-0.0252516
0.687192
-0.0267337
0.654694
-0.0282805
0.623679
-0.0297497
0.593984
-0.0309353
0.565486
-0.0320889
0.538405
-0.0332008
0.512306
-0.0342126
0.487371
-0.0351095
0.463402
-0.0358945
0.44045
-0.0365747
0.4185
-0.037159
0.397473
-0.0376709
0.37743
-0.0381659
0.358299
-0.0388984
0.340113
-0.0396975
0.322706
-0.0399816
0.305898
-0.0398368
0.289841
-0.0397318
0.274647
-0.0395932
0.26024
-0.0391681
0.246462
-0.0386548
0.233507
-0.038218
0.221335
-0.0377194
0.209709
-0.0370628
0.198633
-0.0363196
0.188156
-0.0355569
0.178297
-0.0346899
0.168962
-0.0337027
0.160146
-0.0326267
0.15184
-0.0314587
0.143969
-0.0301929
0.136512
-0.0288308
0.129444
-0.0273593
0.122723
-0.0257805
0.116341
-0.0241343
0.110331
-0.0224943
0.104705
-0.0204884
0.0990906
-0.0179106
0.0924345
-0.0140234
0.0827751
-0.00765022
0.0626684
0.0222017
-0.000899117
0.970915
-0.00597935
0.963381
-0.0104214
0.920571
-0.0142135
0.876473
-0.0176938
0.835927
-0.0208814
0.796789
-0.0237788
0.759536
-0.0268421
0.724135
-0.0297488
0.690099
-0.0324046
0.65735
-0.0346874
0.625962
-0.0366983
0.595995
-0.0386648
0.567452
-0.0403424
0.540082
-0.0417622
0.513726
-0.043001
0.488609
-0.0440816
0.464483
-0.0450178
0.441387
-0.0458056
0.419287
-0.0464408
0.398108
-0.0469091
0.377898
-0.0471453
0.358535
-0.0469269
0.339894
-0.0464045
0.322184
-0.0461662
0.30566
-0.0461612
0.289836
-0.0459215
0.274407
-0.045503
0.259821
-0.0451941
0.246153
-0.0448196
0.233132
-0.0441755
0.220691
-0.0433832
0.208917
-0.0425625
0.197813
-0.0416619
0.187255
-0.0406079
0.177243
-0.0394789
0.167833
-0.0382934
0.158961
-0.0370115
0.150558
-0.0356301
0.142587
-0.0341518
0.135034
-0.0325743
0.127866
-0.0309237
0.121072
-0.0292289
0.114647
-0.0274546
0.108557
-0.0256533
0.102903
-0.0232455
0.0966829
-0.0201951
0.0893841
-0.0153703
0.0779503
-0.00796436
0.0552624
0.0142373
-0.00211139
0.973027
-0.00812378
0.969394
-0.0132499
0.925697
-0.0180499
0.881273
-0.0222949
0.840172
-0.0259343
0.800428
-0.029123
0.762724
-0.0316499
0.726662
-0.033814
0.692263
-0.0359108
0.659447
-0.0380037
0.628055
-0.039864
0.597855
-0.0414224
0.569011
-0.0429415
0.541601
-0.0444005
0.515185
-0.0457302
0.489939
-0.0469205
0.465673
-0.0479625
0.442429
-0.0488593
0.420184
-0.0496195
0.398868
-0.0502649
0.378544
-0.0508574
0.359127
-0.0516321
0.340669
-0.0524712
0.323023
-0.0527661
0.305955
-0.0525065
0.289577
-0.0522167
0.274117
-0.0519069
0.259511
-0.0512584
0.245504
-0.0504194
0.232293
-0.0496267
0.219898
-0.048789
0.208079
-0.0477727
0.196796
-0.0466289
0.186112
-0.0454613
0.176075
-0.0441972
0.166569
-0.0428083
0.157572
-0.0413249
0.149075
-0.039754
0.141017
-0.0381008
0.13338
-0.0363729
0.126138
-0.0345559
0.119255
-0.0326447
0.112735
-0.0308409
0.106753
-0.0286943
0.100757
-0.0260388
0.0940274
-0.0222406
0.0855859
-0.0159187
0.0716284
-0.00649786
0.0458416
0.00773945
-0.0024781
0.975505
-0.00891182
0.975827
-0.0141806
0.930966
-0.0188439
0.885936
-0.0230139
0.844342
-0.026903
0.804317
-0.0306794
0.766501
-0.0343413
0.730324
-0.0378648
0.695787
-0.0409507
0.662533
-0.0436082
0.630712
-0.046201
0.600448
-0.0487267
0.571536
-0.0508712
0.543746
-0.0527323
0.517046
-0.0543546
0.491561
-0.0557839
0.467102
-0.0570213
0.443666
-0.0580645
0.421227
-0.0589091
0.399713
-0.0595311
0.379166
-0.0598589
0.359455
-0.0596878
0.340498
-0.0590958
0.322431
-0.058658
0.305517
-0.0584891
0.289408
-0.0580992
0.273727
-0.057429
0.258841
-0.0568293
0.244905
-0.056206
0.23167
-0.0552912
0.218983
-0.054152
0.20694
-0.0529601
0.195604
-0.0517122
0.184864
-0.0503031
0.174666
-0.0487998
0.165065
-0.0472427
0.156015
-0.0456043
0.147437
-0.043886
0.139298
-0.0420887
0.131583
-0.0402092
0.124259
-0.0382787
0.117325
-0.0363986
0.110855
-0.0344207
0.104775
-0.0318585
0.0981944
-0.0286826
0.0908514
-0.0237812
0.0806846
-0.0155495
0.0633966
-0.00424666
0.0345388
0.00349279
-0.00379211
0.979297
-0.0104353
0.982471
-0.0163521
0.936883
-0.022021
0.891605
-0.0268587
0.849179
-0.0311212
0.80858
-0.0347102
0.77009
-0.0378449
0.733458
-0.0406037
0.698546
-0.0432925
0.665221
-0.046022
0.633442
-0.0482542
0.60268
-0.050225
0.573507
-0.052225
0.545746
-0.0541386
0.518959
-0.0558928
0.493316
-0.0574741
0.468684
-0.0588662
0.445058
-0.0600676
0.422429
-0.061084
0.400729
-0.0619301
0.380012
-0.0626599
0.360185
-0.0634763
0.341314
-0.0643702
0.323325
-0.0647627
0.305909
-0.064448
0.289093
-0.0639739
0.273253
-0.0635078
0.258375
-0.0626885
0.244085
-0.0615558
0.230537
-0.0604128
0.21784
-0.0592651
0.205792
-0.0579509
0.19429
-0.0564697
0.183383
-0.0549653
0.173162
-0.053392
0.163492
-0.0517046
0.154327
-0.0499299
0.145662
-0.0480756
0.137444
-0.0461557
0.129663
-0.0441887
0.122292
-0.0422071
0.115343
-0.0402778
0.108926
-0.0378696
0.102367
-0.034989
0.0953138
-0.0308916
0.0867539
-0.024531
0.074324
-0.0149774
0.0538431
-0.00261589
0.0221773
0.0008769
-0.00400006
0.983297
-0.0105969
0.989067
-0.0162948
0.942581
-0.021498
0.896809
-0.0262428
0.853924
-0.0307881
0.813125
-0.0352057
0.774507
-0.0394192
0.737672
-0.0433478
0.702474
-0.0469044
0.668778
-0.0500821
0.63662
-0.0534854
0.606083
-0.0566269
0.576649
-0.0593082
0.548427
-0.061707
0.521358
-0.0638474
0.495456
-0.0657527
0.470589
-0.0674203
0.446726
-0.0688408
0.423849
-0.0700111
0.401899
-0.0708996
0.380901
-0.0714418
0.360727
-0.0714586
0.341331
-0.0709118
0.322778
-0.0703278
0.305325
-0.0700212
0.288787
-0.0695659
0.272798
-0.068708
0.257517
-0.0678265
0.243204
-0.0669853
0.229696
-0.0658796
0.216734
-0.0644726
0.204385
-0.0629675
0.192785
-0.061448
0.181863
-0.0597821
0.171496
-0.0580096
0.16172
-0.0561899
0.152508
-0.0543052
0.143777
-0.0523668
0.135505
-0.0503704
0.127667
-0.0483366
0.120258
-0.0464376
0.113444
-0.0442625
0.106751
-0.0416291
0.0997332
-0.0382395
0.0919243
-0.0332048
0.0817192
-0.0248751
0.0659943
-0.0124489
0.0414169
-0.00153791
0.0112662
-0.000661011
-0.00408644
0.987383
-0.0114068
0.996388
-0.0175188
0.948693
-0.0234614
0.902751
-0.0284947
0.858957
-0.0330338
0.817664
-0.0370795
0.778553
-0.040839
0.741431
-0.0442958
0.705931
-0.0477773
0.672259
-0.0510353
0.639878
-0.0537434
0.608791
-0.0563566
0.579262
-0.0590038
0.551075
-0.0615409
0.523895
-0.0638867
0.497802
-0.066023
0.472725
-0.0679292
0.448632
-0.0696036
0.425524
-0.071035
0.403331
-0.0722256
0.382091
-0.0732162
0.361718
-0.0741744
0.342289
-0.0752091
0.323812
-0.0758398
0.305956
-0.0756475
0.288594
-0.0750698
0.27222
-0.0745109
0.256958
-0.0736344
0.242327
-0.0723141
0.228376
-0.0708687
0.215289
-0.0694523
0.202969
-0.0679291
0.191262
-0.0662075
0.180142
-0.0644522
0.169741
-0.06266
0.159927
-0.0607793
0.150627
-0.0588353
0.141833
-0.0568266
0.133497
-0.0547718
0.125612
-0.0528741
0.11836
-0.0508243
0.111395
-0.0483473
0.104274
-0.045339
0.0967249
-0.0411744
0.0877596
-0.0344432
0.0749881
-0.0236367
0.0551878
-0.00833225
0.0261124
-0.0010578
0.00399176
-0.00171881
-0.00336959
0.990753
-0.0102043
1.00322
-0.0158261
0.954315
-0.0211371
0.908062
-0.0261065
0.863927
-0.0311772
0.822735
-0.0360318
0.783408
-0.0407009
0.7461
-0.0452229
0.710453
-0.0491878
0.676224
-0.0531725
0.643862
-0.0573248
0.612943
-0.0611724
0.58311
-0.0645941
0.554496
-0.0677504
0.527052
-0.0706332
0.500685
-0.0732404
0.475332
-0.075565
0.450957
-0.0775884
0.427547
-0.0793016
0.405044
-0.0806757
0.383465
-0.0816526
0.362694
-0.0820909
0.342727
-0.0818216
0.323543
-0.0812601
0.305395
-0.0809196
0.288254
-0.0805307
0.271831
-0.0796462
0.256074
-0.0785594
0.241241
-0.0775237
0.22734
-0.0763104
0.214076
-0.0747501
0.201408
-0.0730008
0.189513
-0.0712662
0.178407
-0.06943
0.167904
-0.0674847
0.157982
-0.0655043
0.148646
-0.0634787
0.139808
-0.0614399
0.131458
-0.0595158
0.123688
-0.0575418
0.116386
-0.0552143
0.109067
-0.0525616
0.101621
-0.0490269
0.0931903
-0.0432686
0.0820012
-0.0333687
0.0650882
-0.0181698
0.0399889
-0.00432255
0.0122652
-0.000323712
-7.07612e-06
-0.00204252
-0.00286726
0.99362
-0.0097837
1.01014
-0.0159787
0.96051
-0.0216429
0.913726
-0.0266587
0.868943
-0.0312841
0.82736
-0.0357666
0.78789
-0.0399055
0.750239
-0.0439264
0.714474
-0.0481253
0.680423
-0.0520328
0.64777
-0.0555411
0.616452
-0.0589508
0.586519
-0.0624046
0.55795
-0.0657441
0.530391
-0.0689088
0.503849
-0.0718711
0.478295
-0.0745544
0.45364
-0.0769628
0.429956
-0.0790752
0.407156
-0.0808766
0.385267
-0.0823881
0.364206
-0.0837249
0.344064
-0.0850625
0.324881
-0.0861181
0.30645
-0.0863102
0.288446
-0.0858496
0.271371
-0.0852993
0.255524
-0.0844982
0.240439
-0.083159
0.226001
-0.0814971
0.212414
-0.0798235
0.199735
-0.0781357
0.187825
-0.0762467
0.176518
-0.0742887
0.165946
-0.0723342
0.156028
-0.0703297
0.146642
-0.0683085
0.137786
-0.0663314
0.129481
-0.0643933
0.12175
-0.0621979
0.114191
-0.0597141
0.106583
-0.0564955
0.0984026
-0.0514082
0.0881029
-0.0425954
0.0731884
-0.0285784
0.0510713
-0.0109824
0.0223928
-0.00221852
0.00350133
-3.42657e-05
-0.00219133
-0.00207678
-0.0018197
0.99544
-0.00682558
1.01514
-0.0120657
0.96575
-0.0173682
0.919029
-0.0223756
0.87395
-0.027658
0.832642
-0.0325996
0.792832
-0.0376301
0.75527
-0.0425897
0.719434
-0.0472632
0.685097
-0.0519916
0.652498
-0.0569216
0.621382
-0.0616192
0.591217
-0.0659717
0.562303
-0.0701229
0.534542
-0.0740279
0.507754
-0.0776244
0.481891
-0.0809114
0.456927
-0.0838522
0.432896
-0.0864276
0.409732
-0.0886093
0.387448
-0.0903565
0.365953
-0.0915575
0.345265
-0.0919415
0.325265
-0.0917059
0.306215
-0.0915213
0.288261
-0.0913673
0.271217
-0.0906842
0.254841
-0.0895453
0.239301
-0.088345
0.224801
-0.0870605
0.211129
-0.0854491
0.198123
-0.0834991
0.185875
-0.0815328
0.174552
-0.0795384
0.163952
-0.077453
0.153942
-0.0753659
0.144555
-0.0733014
0.135722
-0.0713425
0.127522
-0.0692379
0.119645
-0.0668412
0.111794
-0.0638343
0.103576
-0.059252
0.0938204
-0.0513224
0.0801732
-0.0380951
0.0599611
-0.0190511
0.0320273
-0.00505649
0.00839826
-0.000704146
-0.000851018
0.000186483
-0.00308196
-0.0018903
-0.000354461
0.995794
-0.00583078
1.02062
-0.0109039
0.970823
-0.0161869
0.924312
-0.0208847
0.878648
-0.0255202
0.837278
-0.0301219
0.797433
-0.034691
0.759839
-0.0392484
0.723991
-0.0440487
0.689897
-0.0486982
0.657148
-0.0530047
0.625688
-0.0573791
0.595591
-0.0618708
0.566794
-0.0662502
0.538922
-0.0704795
0.511984
-0.0745037
0.485915
-0.0783073
0.46073
-0.0818072
0.436396
-0.0849392
0.412864
-0.0876963
0.390205
-0.0900624
0.368319
-0.0921138
0.347317
-0.0940406
0.327191
-0.0957924
0.307967
-0.096731
0.2892
-0.0967022
0.271188
-0.0963164
0.254455
-0.0957125
0.238697
-0.0945505
0.223639
-0.09281
0.209389
-0.0908529
0.196166
-0.088948
0.18397
-0.0868905
0.172494
-0.0846906
0.161752
-0.0825264
0.151778
-0.0804106
0.142439
-0.0783896
0.133701
-0.0763082
0.125441
-0.0739469
0.117284
-0.0710591
0.108906
-0.0668894
0.0994065
-0.059646
0.086577
-0.046926
0.0674533
-0.02735
0.0403851
-0.00946407
0.0141413
-0.00214571
0.0010799
-2.53822e-05
-0.00297135
0.000225362
-0.0033327
-0.00166494
0.0013986
0.994396
-0.00228838
1.02431
-0.00610487
0.974639
-0.0104789
0.928686
-0.0149556
0.883125
-0.0198889
0.842211
-0.0250045
0.802549
-0.0303447
0.765179
-0.035604
0.72925
-0.0408392
0.695132
-0.0462749
0.662583
-0.0520679
0.631481
-0.0577037
0.601227
-0.06312
0.572211
-0.0683901
0.544192
-0.0734837
0.517077
-0.0783725
0.490804
-0.0829906
0.465349
-0.0872437
0.440649
-0.0910965
0.416716
-0.0944887
0.393598
-0.0973952
0.371226
-0.0997304
0.349652
-0.101259
0.32872
-0.101802
0.30851
-0.102074
0.289472
-0.102363
0.271477
-0.10217
0.254261
-0.101239
0.237766
-0.0999434
0.222343
-0.0985485
0.207994
-0.0969325
0.19455
-0.0948183
0.181855
-0.092516
0.170192
-0.0902505
0.159487
-0.0879347
0.149462
-0.0856663
0.140171
-0.0834393
0.131474
-0.0810135
0.123015
-0.0781652
0.114436
-0.074248
0.104989
-0.0675853
0.0927438
-0.0552679
0.0742595
-0.0353781
0.0475635
-0.0148003
0.0198074
-0.00419666
0.00353768
-0.000724349
-0.00239241
0.000202247
-0.00389794
0.000198824
-0.00332928
-0.00146612
0.00249463
0.991901
-0.000675343
1.02748
-0.00413313
0.978097
-0.00813201
0.932685
-0.0122452
0.887238
-0.0166608
0.846627
-0.0208558
0.806744
-0.0253881
0.769711
-0.0303291
0.734191
-0.03563
0.700433
-0.0408458
0.667799
-0.0459308
0.636566
-0.0513096
0.606606
-0.0568847
0.577786
-0.0624831
0.54979
-0.0680301
0.522624
-0.0734307
0.496205
-0.0786197
0.470538
-0.0835419
0.445572
-0.0881131
0.421288
-0.0922656
0.39775
-0.0959746
0.374935
-0.0991569
0.352834
-0.102025
0.331588
-0.104766
0.311251
-0.106845
0.291551
-0.107767
0.272399
-0.107829
0.254324
-0.107539
0.237476
-0.106752
0.221556
-0.1052
0.206442
-0.102991
0.192342
-0.100675
0.17954
-0.0982972
0.167814
-0.0956887
0.156878
-0.0931878
0.146961
-0.0906606
0.137644
-0.0880191
0.128832
-0.0851421
0.120138
-0.081343
0.110637
-0.0750392
0.0986854
-0.0631309
0.0808355
-0.042965
0.0540937
-0.0204039
0.0250023
-0.00692305
0.00632656
-0.00211245
-0.00127292
-0.000632372
-0.00387249
-0.00014884
-0.00438148
9.58503e-06
-0.00348771
-0.00145653
0.00523925
0.986662
0.00381499
1.0289
0.00145025
0.980462
-0.00151378
0.935649
-0.00515967
0.890884
-0.00954214
0.851009
-0.0144409
0.811643
-0.0196137
0.774884
-0.0250582
0.739636
-0.0304632
0.705838
-0.036453
0.673789
-0.0429364
0.64305
-0.0494008
0.61307
-0.0558221
0.584207
-0.0622865
0.556254
-0.0687045
0.529042
-0.0750158
0.502516
-0.0811679
0.47669
-0.0870728
0.451476
-0.0926257
0.42684
-0.0977286
0.402853
-0.102244
0.379451
-0.106166
0.356756
-0.109327
0.334748
-0.111284
0.313208
-0.112369
0.292636
-0.113428
0.273458
-0.114066
0.254962
-0.113798
0.237207
-0.112689
0.220448
-0.111158
0.20491
-0.109476
0.19066
-0.107223
0.177287
-0.104377
0.164967
-0.101577
0.154078
-0.0985979
0.143983
-0.0954831
0.134529
-0.0922493
0.125599
-0.0882045
0.116093
-0.0819156
0.104348
-0.0704017
0.0871715
-0.0499134
0.0603472
-0.0257625
0.0299428
-0.00993318
0.00917302
-0.00369455
8.79354e-05
-0.00159517
-0.0033723
-0.000835198
-0.00463247
-0.000492869
-0.00472381
-0.00021441
-0.00376616
-0.00167094
0.00612832
0.980533
0.00517487
1.02986
0.0036651
0.981972
0.00104875
0.938265
-0.00222179
0.894154
-0.00544777
0.854235
-0.00919882
0.815394
-0.0135815
0.779267
-0.0184479
0.744502
-0.0238788
0.711269
-0.0293335
0.679244
-0.0349357
0.648652
-0.0410671
0.619201
-0.0475849
0.590725
-0.0543256
0.562995
-0.0611936
0.53591
-0.0680948
0.509417
-0.0749064
0.483501
-0.0815213
0.458091
-0.0878628
0.433182
-0.0938138
0.408804
-0.0993018
0.384939
-0.104207
0.361661
-0.108482
0.339024
-0.112515
0.317241
-0.116219
0.296341
-0.118638
0.275877
-0.119719
0.256043
-0.120015
0.237503
-0.119766
0.220199
-0.118799
0.203944
-0.11671
0.18857
-0.113944
0.174521
-0.111006
0.162029
-0.107615
0.150687
-0.103896
0.140264
-0.100008
0.130641
-0.0952298
0.12082
-0.0883183
0.109181
-0.0767209
0.0927502
-0.056125
0.0665756
-0.0306221
0.0348443
-0.0123622
0.0116829
-0.00435562
0.00116642
-0.00137091
-0.00289678
-0.000305166
-0.00443804
-9.4897e-05
-0.00484274
-0.000169535
-0.00464917
-0.000170445
-0.00376525
-0.00184139
0.00955938
0.970974
0.0100785
1.02934
0.00956213
0.982488
0.00767161
0.940156
0.00518216
0.896644
0.00146512
0.857952
-0.00272748
0.819586
-0.00736927
0.783909
-0.012294
0.749427
-0.0175674
0.716542
-0.0237078
0.685384
-0.0304621
0.655406
-0.0373894
0.626129
-0.0445224
0.597858
-0.0519476
0.57042
-0.0595752
0.543538
-0.0673233
0.517165
-0.0750875
0.491266
-0.0827574
0.465761
-0.0902278
0.440652
-0.0973559
0.415932
-0.103999
0.391581
-0.109977
0.367639
-0.115159
0.344205
-0.119269
0.321351
-0.121957
0.299028
-0.124055
0.277976
-0.125835
0.257822
-0.126869
0.238537
-0.126669
0.219999
-0.125291
0.202566
-0.123452
0.186731
-0.121276
0.172346
-0.118202
0.158955
-0.114141
0.146626
-0.10926
0.135383
-0.103468
0.124849
-0.0955565
0.112908
-0.0830899
0.0967149
-0.061445
0.0711053
-0.0341864
0.039317
-0.0132964
0.0139543
-0.00250151
0.000887951
0.00226828
-0.00360336
0.00389034
-0.00451884
0.00391
-0.0044577
0.00300549
-0.00393823
0.00167263
-0.0033163
0.000495039
-0.00258767
-0.00134635
0.00868437
0.96229
0.00992181
1.0281
0.00981258
0.982597
0.00856383
0.941404
0.00722017
0.897987
0.00518433
0.859988
0.0023293
0.822442
-0.00116482
0.787403
-0.00559879
0.753861
-0.0107886
0.721732
-0.0159887
0.690584
-0.0215766
0.660994
-0.0280012
0.632553
-0.035034
0.604891
-0.042546
0.577932
-0.0504861
0.551478
-0.058719
0.525398
-0.0671138
0.49966
-0.0755211
0.474169
-0.0837912
0.448922
-0.0917887
0.42393
-0.0993823
0.399175
-0.10645
0.374707
-0.112867
0.350622
-0.1187
0.327183
-0.124305
0.304634
-0.128769
0.28244
-0.131702
0.260756
-0.133229
0.240064
-0.133762
0.220532
-0.133671
0.202474
-0.132418
0.185478
-0.129528
0.169456
-0.125714
0.155141
-0.120854
0.141765
-0.114441
0.12897
-0.105382
0.11579
-0.090935
0.0984614
-0.0667681
0.0725479
-0.03636
0.0406972
-0.0113754
0.0143324
0.00287366
-0.000294723
0.00926693
-0.00550531
0.0113009
-0.00563733
0.0110883
-0.00430624
0.00955789
-0.0029273
0.00712226
-0.0015026
0.00426122
-0.000455261
0.00155277
0.000120789
0.000206417
0.0127089
0.949581
0.0145602
1.02625
0.0157066
0.981451
0.0147203
0.942391
0.0132955
0.899412
0.0106802
0.862604
0.00786852
0.825253
0.00414419
0.791127
0.000230062
0.757775
-0.0043658
0.726328
-0.0101953
0.696414
-0.0166468
0.667446
-0.0234407
0.639347
-0.0307118
0.612162
-0.0385908
0.585811
-0.0469871
0.559874
-0.0558278
0.534239
-0.064985
0.508818
-0.0743363
0.48352
-0.083739
0.458325
-0.0929955
0.433186
-0.101927
0.408106
-0.110404
0.383184
-0.118173
0.358391
-0.12491
0.33392
-0.130112
0.309835
-0.133982
0.28631
-0.137226
0.264
-0.139786
0.242624
-0.141484
0.22223
-0.14136
0.20235
-0.139484
0.183602
-0.137343
0.167315
-0.133695
0.151494
-0.127375
0.135445
-0.117225
0.118821
-0.100403
0.0989679
-0.0721478
0.070206
-0.0380933
0.0384934
-0.00957008
0.0121739
0.0071786
-0.00241628
0.0148087
-0.00792486
0.0165712
-0.00726778
0.0159704
-0.00503653
0.0141392
-0.002475
0.0115284
-0.00031655
0.00841494
0.00161088
0.00506725
0.00289243
0.00191197
0.00327607
0.00211839
0.0100397
0.939541
0.0121489
1.02414
0.0136111
0.979989
0.0142387
0.941763
0.0142831
0.899368
0.0135949
0.863292
0.0118419
0.827006
0.00941634
0.793553
0.00595855
0.761233
0.00189764
0.730389
-0.00234018
0.700652
-0.00738854
0.672494
-0.0134938
0.645453
-0.0203503
0.619018
-0.027949
0.59341
-0.0363037
0.568229
-0.0453281
0.543263
-0.0548811
0.518371
-0.0647931
0.493432
-0.0748485
0.46838
-0.0848935
0.443231
-0.0947632
0.417976
-0.104259
0.39268
-0.1132
0.367333
-0.12146
0.34218
-0.129184
0.31756
-0.136357
0.293483
-0.141882
0.269524
-0.145696
0.246438
-0.147748
0.224282
-0.148509
0.203112
-0.149236
0.184329
-0.146956
0.165034
-0.140403
0.144941
-0.129363
0.124405
-0.11046
0.0999181
-0.0782063
0.0667139
-0.0422707
0.0342705
-0.0147724
0.0109952
0.00129456
-0.00389307
0.00847469
-0.0095964
0.0112275
-0.0106777
0.0119319
-0.00797211
0.011384
-0.00448868
0.00984096
-0.000931941
0.00762752
0.00189689
0.00525246
0.00398594
0.00288932
0.00525558
0.000959462
0.00520592
0.00307785
0.0138303
0.925711
0.0170348
1.02093
0.018787
0.978236
0.0187834
0.941767
0.0181837
0.899967
0.0170963
0.864379
0.0153565
0.828746
0.0131125
0.795797
0.0105137
0.763832
0.00713629
0.733766
0.00241152
0.705376
-0.00302034
0.677926
-0.00908481
0.651517
-0.0158484
0.625782
-0.0233788
0.600941
-0.0317479
0.576598
-0.0409642
0.55248
-0.050908
0.528314
-0.061461
0.503985
-0.0724557
0.479375
-0.0836411
0.454417
-0.0947832
0.429118
-0.105746
0.403643
-0.116338
0.377925
-0.126155
0.351997
-0.134589
0.325994
-0.14126
0.300153
-0.146854
0.275118
-0.151065
0.250649
-0.154647
0.227864
-0.157953
0.206418
-0.157148
0.183524
-0.151045
0.15893
-0.140167
0.134063
-0.118642
0.102879
-0.0864983
0.0677748
-0.0567301
0.0369457
-0.0371076
0.014648
-0.0274958
0.0013834
-0.0226784
-0.00871048
-0.0180668
-0.014208
-0.0126848
-0.0160596
-0.00725088
-0.0134061
-0.00313867
-0.0086009
-0.00100637
-0.00306424
-0.000333764
0.00122428
-0.00027195
0.00392413
-0.000372106
0.00535573
-0.00035946
0.00519327
0.00271839
0.00877918
0.916932
0.0139579
1.01576
0.0148743
0.97732
0.0165399
0.940101
0.0176822
0.898825
0.01786
0.864201
0.0176429
0.828963
0.0164601
0.796979
0.0143378
0.765954
0.0117201
0.736384
0.00894812
0.708148
0.0052571
0.681617
0.000358848
0.656415
-0.00567667
0.631817
-0.0126227
0.607887
-0.0205401
0.584516
-0.0295017
0.561441
-0.0394628
0.538275
-0.0502452
0.514767
-0.0615704
0.4907
-0.0732877
0.466134
-0.0852058
0.441036
-0.0971624
0.415599
-0.108862
0.389625
-0.119969
0.363103
-0.130405
0.33643
-0.140327
0.310075
-0.148943
0.283734
-0.156294
0.258
-0.161775
0.233345
-0.163574
0.208217
-0.15978
0.17973
-0.15031
0.149461
-0.128956
0.112709
-0.102219
0.0761418
-0.0810369
0.0465929
-0.0698826
0.0257914
-0.0656898
0.0104552
-0.0606454
-0.00366093
-0.054605
-0.0147509
-0.0465301
-0.0222829
-0.0368775
-0.0257123
-0.0262392
-0.0240443
-0.0164392
-0.0184009
-0.00896514
-0.0105383
-0.0047152
-0.00302565
-0.00278485
0.00199378
-0.0015796
0.00415048
-0.000666913
0.00428059
0.00205148
0.0123931
0.904538
0.0188122
1.00934
0.0183182
0.977814
0.019012
0.939407
0.0196525
0.898184
0.0194306
0.864423
0.0189243
0.829469
0.0181438
0.79776
0.0170618
0.767036
0.0150793
0.738366
0.0117494
0.711478
0.00789293
0.685473
0.00341394
0.660894
-0.00199384
0.637225
-0.00846733
0.61436
-0.0159677
0.592016
-0.0246627
0.570136
-0.0346122
0.548225
-0.0456355
0.525791
-0.0575772
0.502642
-0.0701465
0.478703
-0.0832128
0.454103
-0.0965907
0.428977
-0.109962
0.402996
-0.122817
0.375959
-0.134952
0.348565
-0.145045
0.320167
-0.153834
0.292524
-0.16137
0.265536
-0.164745
0.23672
-0.163339
0.206811
-0.156773
0.173164
-0.137661
0.130349
-0.116367
0.0914152
-0.102032
0.0618068
-0.0969263
0.0414874
-0.094546
0.0234111
-0.0895925
0.00550167
-0.083892
-0.00936143
-0.0775659
-0.021077