/*--------------------------------*- C++ -*----------------------------------*\
| =========                 |                                                 |
| \\      /  F ield         | OpenFOAM: The Open Source CFD Toolbox           |
|  \\    /   O peration     | Version:  v1912                                 |
|   \\  /    A nd           | Website:  www.openfoam.com                      |
|    \\/     M anipulation  |                                                 |
\*---------------------------------------------------------------------------*/
FoamFile
{
    version     2.0;
    format      ascii;
    class       volVectorField;
    location    "0.19";
    object      U;
}
// * * * * * * * * * * * * * * * * * * * * * * * * * * * * * * * * * * * * * //

dimensions      [0 1 -1 0 0 0 0];


internalField   nonuniform List<vector> 
6600
(
(39.8416 -0.0371668 0)
(40.1026 -0.039899 7.61487e-21)
(40.1773 0.0682206 5.3538e-19)
(40.2403 0.177683 0)
(40.2925 0.292185 6.45057e-19)
(40.3478 0.462286 2.11649e-20)
(40.3889 0.618102 -2.35488e-20)
(40.4504 0.803809 -2.65578e-20)
(40.5164 0.985492 5.68866e-19)
(40.5619 1.20545 -1.13717e-19)
(40.5692 1.4524 0)
(40.5793 1.69529 -7.79124e-19)
(40.5925 1.93417 0)
(40.553 2.2061 -8.56625e-19)
(40.5273 2.47565 -1.34042e-18)
(40.4823 2.76107 -7.52755e-19)
(40.4165 3.06006 0)
(40.3368 3.37174 0)
(40.2379 3.70345 1.42881e-18)
(40.1233 4.04994 -1.30398e-18)
(39.9992 4.41684 -2.04498e-19)
(39.866 4.80452 -8.2366e-19)
(39.7189 5.20691 -1.58678e-18)
(39.5151 5.58845 3.73037e-19)
(39.3341 5.98874 1.43192e-18)
(39.1892 6.46473 0)
(38.9561 6.98053 3.69353e-18)
(38.6616 7.49941 0)
(38.3836 8.06952 -1.96137e-18)
(38.1168 8.69211 -1.31236e-18)
(37.8412 9.32643 -3.43614e-19)
(37.5458 9.99055 -1.71745e-18)
(37.2567 10.7074 -7.27065e-19)
(36.9481 11.4726 1.52607e-18)
(36.6274 12.2687 3.49908e-19)
(36.3267 13.1245 1.8784e-18)
(36.0341 14.0597 3.66663e-18)
(35.7518 15.0474 3.68122e-18)
(35.5015 16.1039 -2.74054e-18)
(35.2589 17.2333 2.94696e-18)
(35.0424 18.4365 1.58235e-18)
(34.8667 19.721 0)
(34.7255 21.0844 -4.42004e-19)
(34.6226 22.5411 1.08071e-18)
(34.5651 24.0652 0)
(34.5873 25.7393 -5.20734e-19)
(34.624 27.3654 -1.46918e-18)
(34.9263 29.4392 0)
(33.3481 30.0771 0)
(23.7675 22.8626 -1.47061e-18)
(39.753 -0.0502859 4.45107e-19)
(40.1943 -0.0611479 -4.27705e-19)
(40.2663 0.100853 0)
(40.3156 0.242959 -7.8557e-21)
(40.3677 0.418896 5.14937e-19)
(40.4294 0.578685 1.85718e-20)
(40.5086 0.782591 -1.60699e-22)
(40.5708 0.978179 -2.27349e-20)
(40.5971 1.18733 0)
(40.6238 1.38361 -8.99454e-19)
(40.6593 1.58422 -3.3007e-20)
(40.6848 1.81453 5.63948e-19)
(40.6992 2.07133 6.13809e-19)
(40.7279 2.32141 5.44928e-19)
(40.7203 2.59939 -4.2426e-21)
(40.7038 2.89283 7.3549e-20)
(40.6623 3.20351 -6.62051e-19)
(40.6044 3.52834 0)
(40.5291 3.87305 0)
(40.4314 4.23274 1.35072e-18)
(40.3185 4.61181 1.9469e-19)
(40.176 5.01263 -1.04253e-18)
(40.0103 5.43036 -9.88908e-19)
(39.8776 5.9493 -1.17861e-18)
(39.7075 6.48545 -1.00602e-18)
(39.4403 6.96 -4.3523e-19)
(39.1846 7.45599 -5.99394e-19)
(38.9879 8.02435 -6.05365e-19)
(38.7611 8.60018 1.94167e-18)
(38.5124 9.18161 3.08609e-19)
(38.2711 9.83201 -2.58728e-18)
(38.0263 10.5322 2.42327e-18)
(37.7612 11.2547 1.75843e-18)
(37.4911 12.0101 -2.25857e-18)
(37.2361 12.8222 3.65108e-19)
(36.98 13.6926 -1.92112e-18)
(36.7489 14.6006 1.56163e-18)
(36.5612 15.5762 -1.30737e-18)
(36.3742 16.6057 -8.86308e-19)
(36.2252 17.7028 -1.00746e-18)
(36.1151 18.8663 0)
(36.0297 20.0909 0)
(35.9961 21.3679 -7.02512e-20)
(36.0501 22.7453 6.46277e-21)
(36.2217 24.2061 -8.54277e-19)
(36.4654 25.7955 5.3768e-19)
(36.7268 27.3382 2.93473e-18)
(37.1561 29.1471 0)
(35.4419 29.3721 -3.8738e-18)
(24.5055 21.6156 1.6637e-18)
(39.6729 -0.00843965 -5.88834e-20)
(40.3293 -0.0449667 4.35773e-19)
(40.3756 0.118942 3.84901e-19)
(40.4476 0.274436 -4.07662e-22)
(40.5147 0.440675 -1.17498e-19)
(40.5822 0.635357 1.58655e-20)
(40.6415 0.822394 0)
(40.7142 1.03415 0)
(40.8019 1.26812 0)
(40.8483 1.52396 4.47741e-19)
(40.8693 1.80104 -2.67606e-20)
(40.8864 2.06275 -5.67711e-19)
(40.9055 2.3354 -3.68004e-19)
(40.8789 2.63921 6.58246e-19)
(40.8633 2.94174 3.68758e-19)
(40.833 3.25951 -6.54361e-20)
(40.7816 3.59397 1.27621e-18)
(40.7174 3.94183 -6.4766e-19)
(40.6367 4.31045 -7.83535e-19)
(40.5401 4.69519 0)
(40.4382 5.10055 -5.71565e-19)
(40.3296 5.52863 8.35365e-19)
(40.2096 5.96432 1.00075e-18)
(40.0263 6.36276 1.19347e-18)
(39.8842 6.80679 1.08111e-18)
(39.7862 7.33936 -1.2192e-19)
(39.596 7.89413 -2.19649e-19)
(39.3446 8.43672 -6.77544e-19)
(39.119 9.03703 -3.00168e-19)
(38.9126 9.69194 1.20251e-18)
(38.7022 10.348 3.98277e-19)
(38.4802 11.0289 0)
(38.2773 11.7614 -2.03306e-18)
(38.0645 12.5372 5.54448e-19)
(37.8503 13.3335 1.21465e-18)
(37.6715 14.1755 1.7113e-18)
(37.514 15.0858 -9.73043e-19)
(37.3783 16.034 -6.92933e-19)
(37.2964 17.0373 3.98333e-19)
(37.2408 18.0939 0)
(37.2323 19.2086 -2.89844e-20)
(37.2929 20.3794 0)
(37.4183 21.604 0)
(37.6066 22.8913 1.00996e-18)
(37.8634 24.2136 6.57305e-19)
(38.2162 25.6441 -1.80207e-18)
(38.6493 27.1335 -1.8741e-18)
(39.0366 28.5663 0)
(37.0495 28.3072 -2.42899e-18)
(24.7677 19.9913 2.65215e-18)
(39.6346 0.00047666 -3.89132e-19)
(40.4739 -0.0246144 2.47203e-21)
(40.5297 0.205435 -3.94613e-19)
(40.591 0.360502 -2.87509e-19)
(40.649 0.573408 -4.08985e-19)
(40.7197 0.776336 -1.49789e-19)
(40.8059 1.00459 -1.29728e-20)
(40.8615 1.22387 0)
(40.8836 1.43997 1.96695e-19)
(40.9351 1.67786 2.39712e-19)
(40.9859 1.91328 -1.97612e-20)
(41.0099 2.18035 -2.42093e-20)
(41.0436 2.45196 -2.33811e-19)
(41.0785 2.734 -1.29174e-19)
(41.0804 3.04253 -7.04936e-20)
(41.0769 3.36619 -5.07322e-20)
(41.0461 3.70836 -8.95141e-20)
(41.0027 4.06486 7.27674e-19)
(40.9436 4.44225 1.00226e-18)
(40.8647 4.83587 0)
(40.7727 5.24868 1.36411e-19)
(40.6536 5.68585 0)
(40.5119 6.13626 0)
(40.4118 6.68574 -2.30984e-19)
(40.2728 7.24966 7.1692e-19)
(40.0403 7.75611 8.61894e-19)
(39.8306 8.2875 -1.78943e-19)
(39.6886 8.89088 9.61413e-19)
(39.5192 9.49291 0)
(39.3333 10.0931 0)
(39.164 10.762 5.28266e-19)
(39.0015 11.4773 0)
(38.826 12.2067 5.27278e-19)
(38.6584 12.9621 8.06727e-19)
(38.5208 13.7684 -1.47599e-18)
(38.393 14.6212 -1.45611e-18)
(38.3034 15.4943 9.98463e-19)
(38.2747 16.4218 -3.74198e-19)
(38.2593 17.3855 3.04082e-19)
(38.3018 18.3954 3.5086e-19)
(38.4034 19.4492 -5.254e-19)
(38.5493 20.5398 0)
(38.7623 21.6508 0)
(39.08 22.825 -7.56316e-19)
(39.5401 24.0497 -1.75429e-18)
(40.0807 25.3653 -5.95471e-19)
(40.6488 26.7093 -3.34523e-18)
(40.9844 27.8211 3.69396e-18)
(38.4635 27.0542 5.40176e-18)
(24.5585 18.0712 0)
(39.6162 0.0455763 -9.42715e-22)
(40.6474 0.00528651 1.82889e-19)
(40.6766 0.270223 1.92361e-19)
(40.7744 0.39855 2.98376e-19)
(40.8417 0.614439 0)
(40.9059 0.829867 7.56827e-20)
(40.9723 1.0421 0)
(41.0605 1.2791 -8.28811e-21)
(41.1552 1.54808 -2.75291e-19)
(41.2029 1.82822 -2.33636e-19)
(41.231 2.1312 1.16967e-20)
(41.2597 2.41945 1.46827e-20)
(41.2792 2.72842 -1.63385e-20)
(41.2698 3.0597 -2.16889e-19)
(41.2633 3.39124 -4.30479e-19)
(41.2437 3.73983 3.04157e-20)
(41.2068 4.10469 -6.25459e-19)
(41.1565 4.48383 5.24848e-20)
(41.0922 4.8839 -2.92075e-19)
(41.0139 5.30058 -1.52104e-19)
(40.9344 5.73601 5.33601e-19)
(40.8527 6.19548 0)
(40.7645 6.6628 0)
(40.6057 7.07656 -2.61867e-19)
(40.4916 7.54006 -4.65278e-19)
(40.4393 8.10271 4.87698e-19)
(40.3028 8.68562 -1.32492e-19)
(40.1015 9.24637 0)
(39.9348 9.86557 1.77345e-19)
(39.7982 10.5426 -1.97538e-19)
(39.663 11.2097 -5.36908e-19)
(39.523 11.8915 -5.52221e-19)
(39.4151 12.6194 2.48202e-19)
(39.3092 13.3858 -2.1324e-19)
(39.2123 14.1628 2.37281e-19)
(39.166 14.9701 0)
(39.1558 15.8338 -2.42505e-19)
(39.1739 16.7173 3.41694e-19)
(39.2641 17.6374 -1.34546e-19)
(39.3953 18.5869 -2.37762e-19)
(39.5831 19.5674 5.69132e-19)
(39.8544 20.5756 0)
(40.2048 21.6125 0)
(40.6304 22.6757 -1.68022e-18)
(41.1208 23.732 3.66744e-18)
(41.692 24.8502 9.8853e-19)
(42.311 26.0949 2.07423e-18)
(42.3788 26.7899 -4.48748e-18)
(39.1477 25.4484 3.977e-19)
(23.6988 15.8416 -7.30072e-18)
(39.6301 0.0639382 1.45181e-19)
(40.8495 0.029694 -1.07786e-19)
(40.8926 0.374904 -1.96638e-19)
(40.9763 0.501163 1.77701e-20)
(41.0322 0.752235 0)
(41.1132 0.980659 8.17315e-20)
(41.1862 1.23669 -1.21242e-21)
(41.2421 1.48015 2.97737e-20)
(41.2816 1.72565 8.7299e-20)
(41.3329 1.98015 0)
(41.3939 2.23023 2.61272e-21)
(41.4223 2.53274 -2.79504e-20)
(41.4696 2.82635 1.71938e-20)
(41.5161 3.13518 5.69161e-21)
(41.5278 3.47176 1.50276e-19)
(41.5389 3.82163 -1.14784e-20)
(41.5236 4.19174 2.3233e-19)
(41.4973 4.57593 -2.16054e-20)
(41.4584 4.98084 3.38047e-20)
(41.4025 5.40314 4.06491e-20)
(41.3354 5.84427 8.14505e-20)
(41.2446 6.3124 -3.58968e-21)
(41.1333 6.79763 8.02841e-20)
(41.0776 7.38472 3.34648e-19)
(40.9801 7.97296 0)
(40.7836 8.49531 -3.73207e-19)
(40.6142 9.04251 8.04315e-20)
(40.5288 9.66633 -2.22251e-22)
(40.4241 10.2829 -8.68814e-20)
(40.3065 10.8855 1.07517e-19)
(40.2134 11.5529 -8.88841e-20)
(40.1379 12.2619 3.34617e-19)
(40.0553 12.9754 0)
(39.9906 13.7022 0)
(39.9718 14.4704 0)
(39.9724 15.2761 0)
(40.0191 16.0822 5.40794e-19)
(40.143 16.9254 -9.94228e-19)
(40.2854 17.7839 0)
(40.4937 18.6646 4.18163e-20)
(40.7716 19.562 -2.25762e-19)
(41.0958 20.47 -2.38786e-18)
(41.4853 21.3668 1.31099e-18)
(41.976 22.287 0)
(42.6115 23.2292 1.45059e-18)
(43.3128 24.2442 -5.25084e-18)
(43.9065 25.2546 3.76293e-18)
(43.7356 25.6219 2.90399e-18)
(39.4658 23.6787 1.08159e-17)
(22.147 13.3565 -8.08502e-18)
(39.6754 0.083695 -1.44953e-19)
(41.0608 0.0488139 -3.05494e-20)
(41.1023 0.424458 -1.91995e-22)
(41.199 0.540722 -1.84092e-20)
(41.2731 0.796634 -7.98003e-20)
(41.334 1.02609 1.80298e-21)
(41.4216 1.26572 -1.31039e-19)
(41.5242 1.54163 -2.9893e-20)
(41.6123 1.83021 -1.85972e-19)
(41.6651 2.13667 3.78239e-21)
(41.7057 2.46246 1.19229e-19)
(41.7498 2.7754 -1.08246e-19)
(41.778 3.11906 -2.24267e-20)
(41.7906 3.4822 0)
(41.7974 3.84568 0)
(41.7959 4.22575 -4.40889e-21)
(41.779 4.62103 -7.3263e-20)
(41.7499 5.0308 0)
(41.709 5.46061 -1.36688e-21)
(41.6555 5.90712 -7.74239e-20)
(41.6034 6.36985 -1.07328e-19)
(41.5504 6.85228 -5.24567e-20)
(41.4959 7.33994 0)
(41.3665 7.77067 -1.18043e-19)
(41.283 8.24859 -1.30216e-20)
(41.2775 8.82377 1.4526e-20)
(41.2001 9.41909 0)
(41.0517 9.98165 0)
(40.9418 10.5968 -1.9248e-19)
(40.8744 11.2748 1.18829e-19)
(40.8155 11.9351 6.04742e-20)
(40.7549 12.5946 3.3107e-20)
(40.7363 13.2879 1.1619e-19)
(40.7326 14.0135 -3.20987e-19)
(40.743 14.7386 7.34567e-19)
(40.8142 15.4727 3.56533e-19)
(40.9351 16.2505 -3.97088e-19)
(41.0797 17.0291 6.12716e-19)
(41.3042 17.8232 -1.2983e-18)
(41.5762 18.6232 5.49954e-20)
(41.898 19.4281 -2.74894e-19)
(42.3011 20.2304 1.23554e-18)
(42.7873 21.0398 2.00738e-18)
(43.3521 21.848 -2.2299e-18)
(43.9554 22.6226 1.44423e-18)
(44.6304 23.5076 0)
(45.0115 24.1811 2.33261e-18)
(44.3323 24.2117 3.6246e-18)
(38.7452 21.5466 -7.38767e-18)
(19.6984 10.6334 -2.25422e-18)
(39.7539 0.108843 -8.27897e-20)
(41.3035 0.0652898 -4.41528e-20)
(41.3665 0.522035 -9.95147e-22)
(41.4596 0.639867 1.46772e-19)
(41.5225 0.951155 2.58286e-19)
(41.5973 1.19256 -2.18782e-19)
(41.6727 1.46564 3.88548e-19)
(41.7223 1.72351 -1.48362e-19)
(41.7821 1.98817 1.83197e-19)
(41.8523 2.27148 2.07611e-19)
(41.9221 2.54224 -3.67716e-19)
(41.963 2.87386 1.57983e-19)
(42.0262 3.18865 2.90313e-19)
(42.0917 3.52209 -9.61185e-23)
(42.122 3.88541 1.6603e-19)
(42.1533 4.26088 -2.03631e-19)
(42.1621 4.65785 9.63911e-20)
(42.1609 5.06886 0)
(42.1485 5.49944 0)
(42.1221 5.94738 0)
(42.0868 6.41413 2.63115e-20)
(42.0297 6.90581 2.06649e-20)
(41.9519 7.41597 1.80849e-19)
(41.9416 8.02832 3.51803e-20)
(41.8982 8.64288 0)
(41.7438 9.18256 0)
(41.608 9.73018 -1.89293e-19)
(41.5761 10.3556 7.38954e-20)
(41.5371 10.9712 -1.00781e-19)
(41.4853 11.5539 1.18251e-19)
(41.4599 12.1908 2.7648e-20)
(41.4637 12.8671 3.83889e-19)
(41.4643 13.5394 -1.52833e-19)
(41.4849 14.206 6.50685e-19)
(41.5648 14.8987 -3.78285e-19)
(41.6693 15.622 -1.59534e-19)
(41.8144 16.3242 1.5027e-19)
(42.0473 17.0442 5.8387e-19)
(42.2958 17.7598 5.50519e-19)
(42.6025 18.4758 9.55557e-19)
(42.9804 19.1851 -2.52903e-19)
(43.3992 19.8857 1.85637e-18)
(43.87 20.5495 -2.06482e-18)
(44.4193 21.1999 0)
(45.1096 21.8723 0)
(45.8325 22.6583 0)
(46.0174 22.9803 0)
(44.7 22.6867 0)
(37.4796 19.279 -4.20156e-18)
(16.364 7.77499 6.90113e-18)
(39.8485 0.133666 8.34908e-20)
(41.5694 0.0674433 0)
(41.6249 0.556726 0)
(41.728 0.654737 -1.50249e-19)
(41.7849 0.9681 -1.74366e-19)
(41.8736 1.21616 2.23023e-19)
(41.9746 1.47814 -2.63887e-19)
(42.0893 1.76655 1.48835e-19)
(42.185 2.08968 -2.62337e-19)
(42.25 2.42159 -2.14605e-19)
(42.3124 2.77032 2.271e-19)
(42.3827 3.1086 -3.76138e-19)
(42.4292 3.48454 -5.17372e-19)
(42.4724 3.87381 0)
(42.5009 4.26777 -1.83453e-19)
(42.529 4.67508 2.37823e-19)
(42.5395 5.10111 2.47116e-22)
(42.5385 5.54081 4.23074e-19)
(42.529 5.99879 -5.2424e-19)
(42.5055 6.47269 0)
(42.4842 6.96051 0)
(42.4617 7.46278 -3.46308e-19)
(42.4406 7.96515 1.80511e-19)
(42.344 8.40835 4.51289e-19)
(42.2815 8.88322 1.00554e-19)
(42.3151 9.45486 -4.13958e-19)
(42.304 10.0554 5.44666e-19)
(42.2123 10.6078 -5.86513e-19)
(42.1512 11.1962 2.89849e-19)
(42.1423 11.8526 -2.40574e-19)
(42.1495 12.4867 1.41045e-19)
(42.1516 13.0993 -3.80132e-19)
(42.1998 13.7283 3.42637e-19)
(42.276 14.3843 -4.8678e-19)
(42.3633 15.0311 0)
(42.5104 15.6601 -5.2062e-19)
(42.719 16.3198 -4.95087e-19)
(42.9348 16.9645 1.47704e-19)
(43.2258 17.6056 1.22393e-18)
(43.567 18.2334 -1.19631e-18)
(43.9414 18.8471 -2.25086e-19)
(44.3839 19.4327 -2.14577e-18)
(44.9069 20.0099 5.06689e-18)
(45.5163 20.5778 3.47879e-19)
(46.1676 21.1557 4.02065e-19)
(46.6124 21.5984 -2.04411e-18)
(46.4405 21.7013 0)
(44.0633 20.8784 3.74381e-18)
(34.726 16.5541 -2.00358e-18)
(11.8981 4.76201 0)
(39.9678 0.175006 -1.31044e-21)
(41.8638 0.0967322 -1.69879e-22)
(41.936 0.634794 2.86749e-19)
(42.0394 0.730851 0)
(42.1087 1.10691 5.46171e-21)
(42.1873 1.3581 2.27115e-19)
(42.2471 1.6456 0)
(42.3312 1.92991 -3.134e-19)
(42.4065 2.20879 2.82943e-19)
(42.4968 2.5031 -2.1991e-20)
(42.5879 2.80846 -4.79132e-19)
(42.6437 3.16479 9.28499e-20)
(42.7341 3.49222 2.59855e-19)
(42.8198 3.852 0)
(42.8819 4.23531 0)
(42.9414 4.63616 0)
(42.9799 5.05898 4.81259e-19)
(43.012 5.49428 -4.26185e-19)
(43.0314 5.95037 9.02723e-19)
(43.0388 6.42109 -8.388e-20)
(43.0394 6.9099 1.89082e-19)
(43.0199 7.42036 2.42002e-19)
(42.9781 7.94868 -9.91592e-19)
(43.006 8.56966 -7.95381e-19)
(43.0193 9.20397 0)
(42.9083 9.75527 4.0059e-19)
(42.7941 10.2889 -9.93618e-19)
(42.8022 10.8994 5.56437e-19)
(42.8209 11.5033 -3.10052e-19)
(42.8239 12.0506 1.78946e-19)
(42.8452 12.6314 -2.3378e-19)
(42.9045 13.2499 8.88535e-19)
(42.9634 13.8612 -9.21381e-19)
(43.034 14.447 1.31711e-18)
(43.1721 15.0379 5.35987e-19)
(43.339 15.6576 -1.26339e-18)
(43.5257 16.2383 1.59261e-18)
(43.8047 16.8177 -1.02501e-18)
(44.0954 17.3772 3.3778e-20)
(44.424 17.921 0)
(44.8202 18.4391 1.736e-18)
(45.2541 18.9399 1.19661e-18)
(45.7287 19.3926 1.35771e-19)
(46.2524 19.8186 -3.38579e-18)
(46.9264 20.3076 -1.14535e-19)
(47.1362 20.4588 -2.38459e-18)
(46.5825 20.2909 0)
(42.8899 18.8057 3.84483e-18)
(31.2883 13.5668 -6.46896e-18)
(6.89566 1.75431 0)
(40.1239 0.175411 0)
(42.1799 0.102089 0)
(42.2359 0.645201 -9.84852e-20)
(42.3264 0.728179 1.23592e-20)
(42.4042 1.08641 -2.68847e-19)
(42.5106 1.3301 -2.33661e-19)
(42.6445 1.62045 0)
(42.7531 1.93528 3.14119e-19)
(42.8737 2.26646 -4.68902e-19)
(42.9666 2.63864 0)
(43.0439 2.98049 7.92615e-19)
(43.1574 3.33804 -8.3532e-20)
(43.2362 3.75667 4.60479e-20)
(43.3195 4.16482 -5.13331e-20)
(43.3816 4.5888 0)
(43.4408 5.02485 0)
(43.4878 5.47675 -2.21029e-19)
(43.5206 5.94519 -3.67216e-19)
(43.5454 6.42972 1.19479e-19)
(43.5556 6.92815 -5.90912e-20)
(43.5652 7.43872 1.3354e-19)
(43.5704 7.95899 -7.54605e-20)
(43.5771 8.47413 5.97651e-19)
(43.5184 8.93396 2.40811e-19)
(43.4642 9.39443 -4.1983e-19)
(43.5145 9.94071 -6.16025e-19)
(43.5635 10.5353 3.73882e-19)
(43.5251 11.0711 5.92867e-19)
(43.4945 11.6146 0)
(43.5187 12.2292 0)
(43.5676 12.8253 0)
(43.6034 13.3786 -6.33127e-19)
(43.6799 13.9249 -4.4881e-19)
(43.7994 14.4929 -4.33129e-19)
(43.9236 15.0529 6.84747e-19)
(44.0915 15.5674 8.24627e-19)
(44.3354 16.0989 -3.52951e-19)
(44.5657 16.6059 1.13836e-18)
(44.8527 17.0952 -6.63017e-19)
(45.1951 17.557 -8.76991e-19)
(45.5534 17.9951 -1.06975e-18)
(45.9602 18.3852 1.19274e-18)
(46.4375 18.7591 0)
(47.0895 19.1994 1.80941e-18)
(47.4344 19.3944 -1.00274e-18)
(47.3468 19.3532 1.31401e-18)
(45.8546 18.7244 0)
(40.2672 16.3146 -1.83152e-18)
(26.1574 9.9286 1.05219e-18)
(4.0989 0.253556 0)
(40.2837 0.22874 -1.83131e-19)
(42.5201 0.122326 0)
(42.5874 0.689629 -4.37349e-19)
(42.6849 0.783734 2.85243e-19)
(42.758 1.18989 2.62182e-19)
(42.8468 1.44033 -1.08575e-20)
(42.9338 1.73535 1.20836e-20)
(43.0386 2.02656 0)
(43.1391 2.32857 4.53132e-19)
(43.2629 2.61993 -3.18313e-19)
(43.3917 2.97538 -3.1285e-19)
(43.4602 3.33705 3.85893e-19)
(43.5872 3.66841 -2.58581e-19)
(43.703 4.05334 -6.69917e-20)
(43.7984 4.46012 3.79463e-20)
(43.8927 4.88227 0)
(43.9674 5.32982 -4.11929e-19)
(44.0344 5.78942 4.70403e-19)
(44.0891 6.26972 6.06372e-20)
(44.1313 6.76243 -1.93194e-21)
(44.167 7.27111 8.66622e-20)
(44.1827 7.79729 0)
(44.1766 8.33828 1.16822e-19)
(44.2273 8.95442 4.63724e-19)
(44.2907 9.60354 5.36636e-19)
(44.2231 10.1689 6.19328e-19)
(44.1118 10.6805 0)
(44.1281 11.2588 -4.17509e-19)
(44.1812 11.8455 -8.85421e-19)
(44.217 12.3549 4.77273e-19)
(44.2528 12.8659 -1.00697e-18)
(44.3305 13.4102 -4.82954e-19)
(44.4155 13.9529 8.40125e-19)
(44.4947 14.4577 -3.03485e-19)
(44.641 14.9392 -6.90642e-19)
(44.8286 15.4526 -3.49145e-19)
(45.0028 15.9183 -4.87437e-19)
(45.265 16.366 0)
(45.5447 16.7827 -7.98921e-19)
(45.8344 17.175 1.77213e-18)
(46.1813 17.5256 1.08381e-18)
(46.5685 17.8595 -1.28102e-18)
(47.0266 18.1798 1.58743e-18)
(47.4528 18.4202 -8.07568e-19)
(47.5254 18.4381 2.11568e-18)
(47.0202 18.1599 -1.1584e-20)
(44.347 16.9787 0)
(36.5327 13.5878 3.70373e-18)
(20.0012 6.26558 -3.11232e-18)
(1.80329 -0.271187 -1.10608e-18)
(40.506 0.229645 1.83283e-19)
(42.8482 0.114782 -2.63184e-19)
(42.926 0.668575 2.429e-19)
(43.0092 0.733805 -2.80545e-19)
(43.0955 1.10974 -1.96837e-19)
(43.223 1.35397 -1.30188e-20)
(43.3615 1.65333 7.3805e-21)
(43.509 1.9774 0)
(43.6605 2.3227 -3.30697e-19)
(43.7646 2.69068 5.18001e-19)
(43.8938 3.0306 0)
(44.0604 3.42481 -3.16316e-20)
(44.1856 3.87044 1.65561e-20)
(44.3107 4.29847 3.237e-19)
(44.4171 4.74382 -4.69438e-19)
(44.5152 5.20703 -1.72889e-21)
(44.6012 5.68511 6.24216e-20)
(44.671 6.18054 0)
(44.7303 6.69179 -2.33157e-19)
(44.7738 7.21491 4.72523e-19)
(44.8113 7.74854 -5.42965e-20)
(44.8369 8.28718 0)
(44.861 8.81754 0)
(44.8372 9.30209 -2.31612e-19)
(44.7761 9.74912 9.61577e-20)
(44.8092 10.2582 -6.9611e-19)
(44.8973 10.8412 2.50666e-19)
(44.9011 11.3638 -1.422e-19)
(44.876 11.8544 4.38361e-19)
(44.8958 12.4129 1.90012e-19)
(44.9519 12.9682 5.73186e-19)
(44.989 13.4677 -6.03575e-19)
(45.0492 13.932 3.84695e-19)
(45.1702 14.4058 -3.83105e-19)
(45.2972 14.8868 -4.38383e-19)
(45.4331 15.3002 -4.61852e-19)
(45.6623 15.7142 0)
(45.8669 16.1002 1.09322e-18)
(46.0944 16.4623 -4.06009e-19)
(46.3838 16.786 -9.59808e-19)
(46.682 17.0888 1.13591e-18)
(47.0208 17.3499 -2.68378e-20)
(47.4786 17.6285 -7.85139e-19)
(47.6387 17.6998 -1.80804e-20)
(47.5082 17.5999 -1.13251e-18)
(46.0868 16.9804 -2.68478e-18)
(41.4836 15.1574 1.50437e-18)
(30.558 10.7882 0)
(10.4979 2.6884 -1.96882e-18)
(-0.11651 -0.164019 3.79095e-18)
(40.67 0.206665 4.99106e-22)
(43.1778 0.119158 2.64673e-19)
(43.2769 0.680158 -8.52361e-20)
(43.3636 0.74727 -2.87917e-21)
(43.4414 1.15819 1.97162e-19)
(43.5543 1.37605 0)
(43.6832 1.67647 0)
(43.7998 1.96899 -1.05105e-20)
(43.9354 2.26928 5.69243e-19)
(44.1307 2.58632 -2.03567e-19)
(44.2757 2.95848 1.63572e-20)
(44.3879 3.31084 -3.71811e-20)
(44.546 3.66157 1.7212e-19)
(44.7022 4.06626 -1.73258e-19)
(44.8419 4.49468 6.71489e-19)
(44.9757 4.9406 -1.44498e-19)
(45.0925 5.41248 1.66727e-19)
(45.1978 5.89748 4.47285e-20)
(45.289 6.40357 -4.7144e-19)
(45.3654 6.92211 -3.08446e-19)
(45.4317 7.45434 1.65453e-21)
(45.4769 7.99833 -7.54157e-20)
(45.5009 8.55298 0)
(45.5531 9.16011 -3.15128e-19)
(45.6476 9.82305 1.27035e-21)
(45.6209 10.4162 6.58896e-20)
(45.4967 10.9154 7.38675e-20)
(45.4799 11.4545 1.84323e-19)
(45.528 12.0246 0)
(45.5671 12.5086 1.1477e-19)
(45.5824 12.9543 6.35084e-19)
(45.635 13.4182 5.64849e-19)
(45.7147 13.8934 -2.89894e-19)
(45.7706 14.3356 5.92262e-19)
(45.8742 14.7189 -4.79389e-19)
(46.0485 15.1347 -2.8732e-19)
(46.1757 15.5067 0)
(46.3676 15.8506 -7.33256e-19)
(46.5996 16.1547 -4.55853e-19)
(46.8178 16.4369 5.09174e-19)
(47.0781 16.6739 -5.94349e-19)
(47.47 16.9601 6.61445e-19)
(47.6303 17.0641 0)
(47.5819 17.0419 4.84944e-19)
(46.76 16.7047 0)
(43.9546 15.6285 6.59e-19)
(36.8285 12.8924 -1.48368e-18)
(22.4802 7.34512 8.30412e-19)
(4.74344 0.994435 0)
(-1.03397 -0.0491515 2.5017e-19)
(40.8838 0.18578 7.29603e-23)
(43.5108 0.0666066 8.38535e-23)
(43.5888 0.609328 8.7662e-20)
(43.7033 0.622841 4.29161e-22)
(43.8014 1.00856 3.63879e-21)
(43.9401 1.20963 5.6819e-22)
(44.0996 1.52635 -6.32454e-22)
(44.3149 1.83224 1.52351e-21)
(44.4852 2.18781 -2.07821e-19)
(44.6213 2.53248 -4.29377e-21)
(44.8108 2.88498 -2.38319e-21)
(45.0341 3.29548 5.42441e-21)
(45.2194 3.75296 1.83563e-19)
(45.3976 4.19863 -2.16259e-19)
(45.5626 4.66965 -2.63612e-19)
(45.7084 5.16005 1.44419e-19)
(45.8406 5.66722 -1.6129e-19)
(45.9513 6.19433 -7.01028e-21)
(46.048 6.73637 -8.06835e-21)
(46.1235 7.29153 0)
(46.1858 7.85528 -1.06198e-20)
(46.2259 8.42229 -5.69353e-21)
(46.2561 8.98021 6.36999e-21)
(46.2537 9.50287 0)
(46.1739 9.95684 0)
(46.1525 10.4335 2.72977e-19)
(46.2419 11.0052 0)
(46.2715 11.5322 -1.84563e-19)
(46.2308 11.9824 0)
(46.2044 12.4791 8.52047e-21)
(46.2261 12.9931 -2.96291e-19)
(46.2362 13.4568 2.08475e-20)
(46.2408 13.8595 -3.93544e-19)
(46.3178 14.2414 3.4803e-20)
(46.4276 14.6559 2.14803e-19)
(46.4952 14.9961 3.24584e-19)
(46.6635 15.3174 -1.1105e-20)
(46.8263 15.6084 0)
(46.9683 15.8813 -7.41688e-21)
(47.172 16.1114 8.57614e-21)
(47.471 16.3898 0)
(47.6223 16.5273 -1.03252e-20)
(47.632 16.5518 -5.0128e-20)
(47.1958 16.4218 -4.26454e-19)
(45.4495 15.7926 -8.67431e-21)
(40.5625 14.003 0)
(29.8872 10.0858 0)
(11.6543 3.32855 1.14153e-19)
(1.09969 0.318708 -1.13032e-19)
(-1.55421 -0.0917004 2.54162e-19)
(40.9937 0.153201 1.78198e-19)
(43.8131 0.0373421 1.98656e-19)
(43.8928 0.571171 1.1048e-19)
(43.9834 0.601059 1.30402e-19)
(44.091 0.975619 1.38388e-19)
(44.2627 1.168 -1.64823e-19)
(44.4132 1.43491 0)
(44.5596 1.72395 0)
(44.7647 2.00635 1.3283e-19)
(44.9913 2.32916 4.29326e-21)
(45.1951 2.69154 -1.69683e-19)
(45.3621 3.05105 -1.21431e-20)
(45.5644 3.41685 -2.3067e-19)
(45.7665 3.83703 2.69275e-19)
(45.957 4.28308 3.41198e-19)
(46.1422 4.75259 0)
(46.3082 5.25525 0)
(46.4586 5.77106 7.00877e-21)
(46.591 6.31103 8.06661e-21)
(46.7033 6.86519 -3.40633e-19)
(46.7987 7.43297 1.06174e-20)
(46.8677 8.00935 0)
(46.9143 8.59158 0)
(46.9523 9.20245 -6.83077e-20)
(47.0457 9.8792 -3.29776e-19)
(47.0553 10.5229 9.69388e-20)
(46.9167 11.0443 0)
(46.8279 11.5543 -2.37617e-19)
(46.8199 12.115 0)
(46.8286 12.5996 -8.51741e-21)
(46.794 13.0045 0)
(46.7757 13.3932 0)
(46.817 13.798 1.06896e-19)
(46.837 14.2014 1.2311e-19)
(46.8546 14.5112 0)
(46.9845 14.8398 0)
(47.0621 15.1384 1.10986e-20)
(47.1526 15.4138 0)
(47.3171 15.6421 7.41188e-21)
(47.515 15.8947 -2.82195e-19)
(47.6771 16.0885 2.97442e-19)
(47.7085 16.1381 2.07206e-20)
(47.4566 16.1136 1.15757e-20)
(46.2527 15.7382 -4.77927e-19)
(42.662 14.4712 -2.73203e-19)
(34.51 11.5796 1.56131e-18)
(19.7889 6.2677 -6.98353e-19)
(4.43055 1.25132 -7.99955e-19)
(-1.11723 0.194176 6.60468e-19)
(-1.67833 -0.0210871 0)
(41.1408 0.133729 -1.77242e-19)
(44.0625 -0.0400399 2.31442e-19)
(44.1867 0.405846 -1.08468e-19)
(44.2896 0.398884 1.51847e-19)
(44.4171 0.751207 -1.46878e-19)
(44.5798 0.909045 1.69683e-19)
(44.8156 1.21102 1.32031e-20)
(45.0484 1.48095 -1.46944e-20)
(45.2557 1.80451 -1.14825e-19)
(45.4707 2.14258 -1.99632e-20)
(45.7161 2.49191 1.80447e-19)
(46.0063 2.90303 4.68588e-19)
(46.2438 3.3593 -3.02463e-19)
(46.4878 3.82043 -2.4678e-19)
(46.7236 4.31079 -1.1201e-18)
(46.9427 4.83126 5.21334e-20)
(47.152 5.3742 -5.8144e-20)
(47.3153 5.93971 5.81006e-19)
(47.4581 6.52369 8.00502e-20)
(47.5714 7.1251 2.50802e-19)
(47.6605 7.73643 0)
(47.7163 8.35244 0)
(47.7485 8.96194 0)
(47.7504 9.54763 0)
(47.6547 10.0522 3.28076e-19)
(47.5476 10.5217 -8.35673e-19)
(47.5838 11.0863 0)
(47.6123 11.6467 7.65827e-19)
(47.544 12.0938 0)
(47.4379 12.539 0)
(47.377 13.0107 -7.46095e-19)
(47.3356 13.4546 4.04957e-19)
(47.2617 13.8314 -9.10998e-19)
(47.2414 14.1292 2.63017e-19)
(47.3194 14.4757 0)
(47.3139 14.7659 0)
(47.3813 15.0231 3.84195e-19)
(47.5057 15.2395 -1.31101e-18)
(47.6123 15.4746 0)
(47.764 15.7047 -8.03075e-19)
(47.8059 15.78 1.21662e-18)
(47.6153 15.7959 -1.4756e-18)
(46.7502 15.5811 8.37652e-19)
(44.0554 14.6808 -9.71736e-19)
(37.734 12.5146 2.45309e-18)
(25.6413 8.2875 -2.14619e-18)
(8.37133 2.48537 1.38129e-18)
(0.437797 0.553004 -3.08017e-18)
(-2.07742 0.13591 3.63114e-18)
(-1.56522 0.0689281 -2.34122e-18)
(41.1534 0.039833 -4.09191e-19)
(44.2429 -0.075481 2.79875e-20)
(44.3884 0.335293 0)
(44.4978 0.310845 -2.80058e-19)
(44.6324 0.648886 -7.08387e-19)
(44.8421 0.772055 2.36857e-20)
(44.9969 1.00477 0)
(45.2341 1.26518 0)
(45.5049 1.52315 -3.92311e-20)
(45.7812 1.81929 4.37023e-20)
(46.0531 2.17237 -8.73527e-19)
(46.2959 2.51854 5.5732e-19)
(46.5687 2.88707 5.46886e-19)
(46.8417 3.31868 -7.04199e-19)
(47.1032 3.78339 7.44026e-19)
(47.3452 4.27865 1.16599e-19)
(47.5555 4.81067 -1.24753e-18)
(47.7644 5.3669 -1.87495e-18)
(47.952 5.95345 0)
(48.1104 6.55934 8.61324e-19)
(48.2425 7.18185 9.88482e-19)
(48.3382 7.81603 0)
(48.4042 8.45355 -1.28715e-18)
(48.4305 9.10069 0)
(48.4917 9.80489 0)
(48.528 10.5281 8.33081e-19)
(48.3898 11.1275 5.47709e-19)
(48.2061 11.6416 1.1931e-18)
(48.0851 12.2036 0)
(48.0183 12.7195 0)
(47.9133 13.1283 3.55859e-19)
(47.7838 13.4681 4.3295e-19)
(47.7354 13.7879 1.48639e-18)
(47.7216 14.1558 3.07692e-21)
(47.6293 14.4196 5.44467e-21)
(47.6681 14.6657 -1.38545e-18)
(47.7212 14.8869 -1.18535e-20)
(47.744 15.122 1.73801e-18)
(47.8843 15.3665 9.54303e-19)
(47.9267 15.4603 5.34698e-19)
(47.7683 15.4987 1.30754e-18)
(47.1028 15.3792 2.64687e-20)
(45.0583 14.7547 -1.67884e-18)
(39.9409 13.0649 -9.58684e-19)
(29.5775 9.5183 -2.70243e-18)
(12.9088 3.96472 3.02435e-18)
(2.41213 1.0429 -1.34806e-18)
(-1.49906 0.37629 0)
(-2.3531 0.201225 0)
(-1.36647 0.136826 4.60401e-19)
(41.0824 -0.0078651 1.24673e-18)
(44.3928 -0.168841 5.04251e-19)
(44.568 0.144109 -5.44976e-19)
(44.7133 0.0672575 1.95448e-20)
(44.854 0.354146 1.40811e-18)
(45.0823 0.442971 -2.51416e-20)
(45.3681 0.688196 0)
(45.6268 0.925217 -1.14903e-18)
(45.8975 1.20506 -4.21899e-20)
(46.1847 1.5078 -2.58347e-21)
(46.5045 1.82724 1.8639e-18)
(46.8685 2.23258 -9.54748e-19)
(47.1859 2.67308 4.0462e-21)
(47.5158 3.13863 6.12989e-19)
(47.8307 3.64209 0)
(48.1321 4.18341 0)
(48.4209 4.76099 9.65023e-19)
(48.6873 5.37011 1.45765e-18)
(48.9166 6.01152 0)
(49.084 6.67674 -8.58411e-19)
(49.2168 7.35951 -9.84838e-19)
(49.3022 8.05339 -2.9996e-19)
(49.3459 8.74708 1.90972e-19)
(49.3407 9.42941 1.23378e-18)
(49.2489 10.0443 4.31482e-19)
(49.0567 10.5647 4.87566e-19)
(48.9845 11.1428 -1.58319e-18)
(48.9668 11.768 -1.16045e-18)
(48.8629 12.2727 1.41994e-18)
(48.6619 12.7044 -1.57121e-18)
(48.4638 13.137 0)
(48.331 13.5584 0)
(48.1764 13.9479 2.85536e-20)
(47.9964 14.1849 -1.14297e-18)
(47.994 14.438 1.29886e-18)
(47.9449 14.6631 2.16464e-18)
(47.9029 14.871 -7.91712e-19)
(48.0353 15.0801 -1.71295e-18)
(48.0618 15.1781 -1.92633e-18)
(47.9146 15.2123 -1.15165e-18)
(47.3751 15.1613 -2.03725e-20)
(45.7644 14.733 1.47588e-18)
(41.4945 13.3783 0)
(32.3009 10.2924 9.49639e-19)
(16.8143 5.22573 1.0648e-18)
(4.45202 1.65092 1.18504e-18)
(-0.68418 0.689367 3.97547e-18)
(-2.31462 0.41821 -1.48001e-18)
(-2.3328 0.328569 0)
(-1.16453 0.179733 0)
(40.9455 -0.0341179 1.06232e-20)
(44.4731 -0.231729 -9.58335e-19)
(44.6399 0.0490136 5.61343e-19)
(44.7803 -0.0573195 -1.28537e-18)
(44.9584 0.202887 -7.65895e-19)
(45.1831 0.24676 -1.30139e-21)
(45.4199 0.443434 3.05759e-20)
(45.7283 0.610591 1.07096e-18)
(46.0382 0.819886 8.43083e-20)
(46.3955 1.07692 1.0529e-19)
(46.7403 1.39828 -9.27493e-19)
(47.0705 1.70386 -1.38509e-19)
(47.433 2.06676 -1.38384e-18)
(47.8032 2.48997 -1.63435e-18)
(48.1607 2.96097 2.38742e-19)
(48.4975 3.47692 -2.66299e-19)
(48.8019 4.042 0)
(49.0755 4.64527 -1.54873e-18)
(49.3181 5.28718 0)
(49.5485 5.95812 0)
(49.7412 6.65633 0)
(49.8793 7.38093 -6.6136e-19)
(49.978 8.10759 2.15741e-18)
(50.0228 8.84393 -1.60942e-18)
(50.0394 9.60479 0)
(50.0941 10.4321 -5.35992e-19)
(49.9736 11.1827 -1.92044e-18)
(49.7141 11.7716 -2.79768e-18)
(49.4373 12.3603 -2.14258e-18)
(49.2287 12.9358 1.48498e-18)
(49.0284 13.4059 -1.78823e-18)
(48.7633 13.7637 9.90888e-19)
(48.5312 13.9926 2.22545e-18)
(48.4521 14.2865 0)
(48.2607 14.5078 1.38352e-18)
(48.141 14.6734 -2.86137e-18)
(48.2156 14.8341 -1.26998e-20)
(48.1643 14.938 1.75665e-18)
(48.0332 14.9476 9.99854e-19)
(47.5738 14.9324 0)
(46.2425 14.6215 1.3068e-18)
(42.6678 13.5309 -1.50054e-18)
(34.3428 10.8078 3.36644e-18)
(19.7624 6.1629 0)
(6.4126 2.30216 -4.1967e-18)
(0.406996 1.07574 1.16581e-18)
(-1.90027 0.795471 -1.30126e-18)
(-2.6014 0.732695 -1.44717e-18)
(-2.25552 0.563222 3.23847e-18)
(-1.02834 0.245448 1.06356e-21)
(40.731 -0.0660903 -8.62652e-19)
(44.4719 -0.379247 9.74141e-19)
(44.6839 -0.172258 -1.11758e-18)
(44.8523 -0.325156 2.57966e-18)
(45.0422 -0.131024 -1.55091e-18)
(45.3423 -0.138603 1.0996e-19)
(45.6361 0.0525741 -1.09967e-18)
(45.9648 0.211628 0)
(46.317 0.431093 -1.45414e-18)
(46.6603 0.662841 1.83728e-18)
(47.075 0.936264 7.92476e-21)
(47.5252 1.30642 -1.45309e-19)
(47.941 1.70945 1.3792e-18)
(48.3701 2.15449 -9.47827e-20)
(48.7901 2.65188 1.78592e-18)
(49.2006 3.20106 2.847e-19)
(49.5942 3.80233 0)
(49.9663 4.45339 1.54177e-18)
(50.3077 5.15389 3.88508e-18)
(50.5833 5.8948 0)
(50.8003 6.67036 0)
(50.9819 7.46515 0)
(51.0639 8.27919 -2.59827e-18)