/*--------------------------------*- C++ -*----------------------------------*\
| =========                 |                                                 |
| \\      /  F ield         | OpenFOAM: The Open Source CFD Toolbox           |
|  \\    /   O peration     | Version:  v1912                                 |
|   \\  /    A nd           | Website:  www.openfoam.com                      |
|    \\/     M anipulation  |                                                 |
\*---------------------------------------------------------------------------*/
FoamFile
{
    version     2.0;
    format      ascii;
    class       volScalarField;
    location    "0.06";
    object      p;
}
// * * * * * * * * * * * * * * * * * * * * * * * * * * * * * * * * * * * * * //

dimensions      [0 2 -2 0 0 0 0];


internalField   nonuniform List<scalar> 
6600
(
78.073
73.4231
70.9991
69.5638
68.8149
68.5167
68.3741
68.3744
68.5743
68.9927
69.6707
70.6067
71.7771
73.1602
74.8053
76.7378
78.9463
81.4133
84.1426
87.0829
90.2166
93.6004
97.2796
101.172
105.142
109.071
112.902
116.663
120.253
123.357
125.881
127.878
129.061
129.1
127.816
124.784
119.487
111.573
100.623
86.1802
67.8014
44.5829
15.7965
-19.2961
-61.3469
-111.194
-169.502
-236.513
-315.026
-399.397
74.9298
70.2122
68.471
66.9865
65.935
65.2759
64.8054
64.5084
64.4413
64.588
65.018
65.6922
66.5204
67.511
68.7322
70.1942
71.8604
73.7337
75.7428
77.9184
80.2171
82.7205
85.4838
88.4419
91.5282
94.4675
97.1117
99.4585
101.467
102.964
103.55
103.244
102.064
99.6419
95.6267
89.6833
81.3098
70.0496
55.4336
36.9446
14.2837
-13.5603
-47.2377
-87.5412
-135.145
-190.892
-255.164
-327.903
-410.457
-497.124
70.7418
65.9282
64.9772
63.5259
62.2351
61.2087
60.5036
60.0349
59.736
59.6587
59.8697
60.2306
60.6849
61.3154
62.1831
63.2979
64.568
65.9018
67.2601
68.7281
70.3607
72.118
73.8967
75.5962
77.2664
78.9707
80.4047
81.3381
81.6909
81.3409
80.0254
77.5965
73.9969
68.8574
61.8869
52.727
40.9168
26.0918
7.68219
-14.913
-42.1387
-74.6754
-113.164
-158.345
-210.936
-271.812
-341.109
-417.919
-501.427
-585.533
65.9687
60.8341
60.5256
58.849
57.5607
56.5077
55.5876
54.9013
54.415
54.089
54.0132
53.9938
54.1092
54.4331
54.976
55.6453
56.4334
57.2162
57.9981
58.7873
59.6141
60.4951
61.2991
62.0654
62.3918
62.512
62.388
61.7309
60.392
58.2011
54.8597
50.1689
44.0145
36.1074
26.0964
13.6515
-1.65938
-20.2403
-42.5457
-69.2074
-100.779
-137.734
-180.62
-230.058
-286.691
-351.323
-423.922
-502.784
-585.484
-664.502
60.5456
55.2091
55.3827
53.057
51.8283
50.7185
49.7091
48.8719
48.2172
47.6644
47.2873
46.9101
46.6816
46.6494
46.7725
46.9537
47.1179
47.2722
47.4438
47.6487
47.7762
47.7139
47.3596
46.8298
45.9564
44.5776
42.7376
40.2737
37.0245
32.8009
27.3994
20.5158
11.8446
1.07808
-11.9611
-27.6214
-46.3554
-68.5287
-94.6026
-125.079
-160.441
-201.133
-247.558
-300.183
-359.52
-426.272
-500.356
-579.644
-660.046
-732.211
54.6319
49.3453
49.6634
46.6007
45.3224
43.8767
42.7556
41.7708
40.8841
40.1628
39.5294
38.8989
38.3988
37.9402
37.4529
36.9626
36.4202
35.8635
35.247
34.5582
33.7912
32.7964
31.5417
29.7143
27.516
24.6965
21.1524
16.7877
11.5099
5.17766
-2.47077
-11.7152
-22.8396
-36.2169
-52.148
-70.8547
-92.7055
-118.117
-147.442
-181.109
-219.505
-262.968
-311.836
-366.417
-427.019
-494.16
-567.925
-646.259
-723.045
-786.37
48.3686
43.4648
43.2199
39.5981
38.062
36.5015
35.1493
33.8875
32.7538
31.7281
30.6735
29.6846
28.77
27.7998
26.7446
25.5961
24.3323
22.9877
21.524
19.8604
17.9831
15.8174
13.2974
10.2277
6.57395
2.29091
-2.82169
-8.93945
-16.22
-24.7269
-34.6314
-46.1779
-59.7138
-75.5789
-94.0323
-115.423
-139.996
-168.016
-199.885
-235.917
-276.375
-321.53
-371.584
-426.753
-487.275
-553.539
-625.596
-701.331
-772.818
-825.542
40.8447
37.1848
35.6615
31.9098
30.2524
28.4062
26.7478
25.2936
23.9215
22.5192
21.0377
19.5239
17.9047
16.2057
14.4496
12.5881
10.5757
8.35343
5.87953
3.09995
-0.0188629
-3.43513
-7.25782
-11.5688
-16.6371
-22.4992
-29.2631
-37.0315
-46.014
-56.4619
-68.532
-82.4109
-98.2251
-116.277
-136.92
-160.4
-187.04
-217.066
-250.646
-288.077
-329.574
-375.288
-425.371
-479.933
-539.171
-603.483
-672.535
-743.929
-809.061
-850.073
32.1654
28.661
26.5318
23.4003
21.9849
19.698
17.6653
15.8939
14.0578
12.2168
10.3005
8.25851
6.02268
3.62251
1.02088
-1.75479
-4.68858
-7.85988
-11.3415
-15.1748
-19.4868
-24.3447
-29.6775
-35.5615
-42.1398
-49.4933
-57.7855
-67.2198
-77.972
-90.1409
-103.949
-119.602
-137.353
-157.339
-179.756
-204.896
-232.932
-264.046
-298.515
-336.465
-378.012
-423.274
-472.294
-525.144
-581.99
-643.282
-708.787
-774.961
-832.506
-862.159
23.1149
18.1468
17.3919
14.536
13.2392
10.8248
8.62577
6.33507
3.83175
1.23258
-1.43651
-4.15211
-6.99033
-10.1148
-13.5475
-17.2685
-21.3054
-25.662
-30.3608
-35.4113
-40.864
-46.8925
-53.6139
-60.9463
-69.0348
-78.0238
-87.9516
-98.8907
-111.095
-124.783
-140.196
-157.44
-176.615
-197.935
-221.542
-247.603
-276.394
-308.029
-342.545
-380.123
-420.836
-464.709
-511.785
-562.082
-615.704
-672.961
-734.051
-794.783
-845.169
-865.723
12.8413
7.6762
8.16608
4.52946
3.36993
0.952084
-1.14415
-3.67993
-6.59909
-9.88248
-13.3767
-17.0579
-20.9354
-25.0043
-29.2394
-33.8302
-38.9063
-44.4134
-50.3115
-56.6836
-63.5179
-70.8769
-78.9549
-87.7621
-97.2697
-107.548
-118.879
-131.351
-145.006
-160
-176.501
-194.754
-214.941
-237.159
-261.497
-288.04
-316.859
-348.116
-381.996
-418.484
-457.601
-499.364
-543.703
-590.602
-640.19
-692.904
-748.365
-803.259
-848.31
-863.919
1.02933
-3.63577
-2.21962
-6.64828
-7.36536
-10.3605
-12.5555
-15.2512
-18.3238
-21.7563
-25.6121
-30.0943
-35.0925
-40.3162
-45.7406
-51.4923
-57.6266
-64.2348
-71.3662
-79.024
-87.2141
-95.8751
-105.125
-115.134
-126.018
-137.742
-150.274
-163.855
-178.623
-194.692
-212.179
-231.207
-251.898
-274.391
-298.776
-325.129
-353.546
-384.029
-416.581
-451.31
-488.177
-527.133
-568.155
-611.12
-655.912
-703.215
-751.722
-798.72
-836.186
-851.068
-10.6256
-14.1164
-12.7881
-17.1333
-17.3006
-21.3093
-23.8732
-27.3442
-31.0537
-34.8959
-39.0904
-43.9398
-49.345
-55.3801
-62.125
-69.3303
-76.7331
-84.4523
-92.7471
-101.678
-111.252
-121.428
-132.072
-143.251
-155.077
-167.843
-181.53
-196.106
-211.74
-228.523
-246.543
-265.917
-286.752
-309.164
-333.213
-358.935
-386.316
-415.385
-446.19
-478.657
-512.765
-548.448
-585.53
-623.825
-663.521
-704.272
-744.092
-779.415
-802.811
-815.378
-19.3121
-24.59
-20.6544
-26.1396
-25.8334
-30.863
-33.504
-37.9963
-42.7007
-47.5694
-52.8524
-58.5179
-64.434
-70.9778
-78.4542
-86.6855
-95.5513
-104.881
-114.506
-124.56
-135.207
-146.525
-158.481
-171.028
-184.156
-197.863
-212.245
-227.518
-243.687
-260.858
-279.128
-298.577
-319.278
-341.23
-364.498
-389.123
-415.135
-442.492
-471.128
-501.02
-532.008
-563.95
-596.677
-629.845
-663.963
-697.213
-727.162
-749.34
-757.933
-765.272
-27.0602
-32.7185
-26.5621
-35.1446
-33.4348
-39.9731
-42.062
-47.3949
-52.615
-58.3166
-64.9772
-72.0605
-79.2633
-86.9804
-95.1561
-103.863
-113.535
-124.226
-135.497
-147.039
-159.063
-171.601
-184.636
-198.193
-212.304
-227.034
-242.287
-258.1
-274.613
-291.92
-310.104
-329.178
-349.219
-370.396
-392.671
-416.017
-440.381
-465.715
-491.971
-519.017
-546.758
-574.98
-603.226
-631.496
-659.134
-684.625
-705.74
-719.46
-725.025
-727.432
-32.3022
-39.8353
-33.7492
-43.7178
-40.3955
-48.9362
-50.0338
-56.5801
-61.6591
-67.925
-75.4843
-83.4165
-92.0613
-101.484
-111.167
-121.141
-131.709
-143.056
-155.438
-168.506
-181.92
-195.867
-210.27
-224.998
-239.993
-255.406
-271.295
-287.525
-304.157
-321.293
-339.045
-357.613
-377.021
-397.148
-418.087
-439.843
-462.395
-485.668
-509.53
-533.868
-558.447
-582.98
-607.301
-631.097
-653.312
-672.606
-686.654
-693.778
-701.246
-701.887
-36.961
-45.8493
-39.0133
-51.5394
-45.9085
-57.156
-56.7853
-65.5259
-69.9863
-77.2513
-85.1273
-93.4079
-102.967
-113.555
-124.689
-136.494
-148.788
-161.243
-174.367
-188.746
-203.704
-218.868
-234.502
-250.586
-266.84
-283.089
-299.468
-315.978
-332.689
-349.643
-366.863
-384.422
-402.532
-421.451
-441.043
-461.269
-482.038
-503.262
-524.853
-546.604
-568.405
-590.04
-611.206
-631.015
-648.753
-663.187
-672.479
-676.652
-679.617
-681.582
-42.6954
-50.7677
-42.2128
-56.964
-49.6339
-63.8785
-61.505
-73.1174
-76.5832
-85.5392
-93.5084
-102.261
-112.58
-123.704
-135.816
-149.134
-163.268
-177.82
-192.462
-207.702
-224.105
-241.004
-257.948
-275.044
-292.391
-309.747
-326.883
-343.71
-360.355
-376.79
-393.209
-409.893
-426.885
-444.217
-462.165
-480.685
-499.699
-519.111
-538.753
-558.58
-578.373
-597.496
-615.408
-632.056
-646.239
-656.342
-661.418
-666.48
-666.907
-668.741
-46.26
-53.7208
-45.5901
-60.8479
-52.2154
-68.4482
-64.2261
-78.2205
-80.5698
-91.8322
-99.7392
-109.788
-120.848
-132.29
-144.977
-159.194
-174.543
-190.996
-208.105
-225.147
-242.529
-260.894
-279.836
-298.688
-317.246
-335.559
-353.537
-370.97
-387.766
-403.928
-419.581
-434.82
-450.08
-465.801
-481.999
-498.803
-516.158
-533.939
-552.113
-570.419
-588.301
-605.249
-621.176
-635.163
-645.518
-651.127
-655.127
-657.273
-658.557
-659.44
-47.9004
-54.6957
-47.3897
-62.4907
-53.2765
-70.9149
-65.3462
-81.4143
-82.2018
-95.5537
-102.651
-114.57
-126.483
-138.876
-152.593
-167.475
-183.491
-201.086
-220.158
-239.841
-259.547
-279.385
-299.707
-320.453
-340.976
-360.874
-380.011
-398.167
-415.19
-431.041
-445.86
-459.936
-473.525
-487.025
-501.047
-515.838
-531.481
-547.933
-564.946
-582.2
-598.75
-614.18
-628.091
-639.257
-646.092
-648.561
-650.415
-651.708
-653.182
-653.635
-47.6803
-53.8101
-48.3237
-61.7537
-53.8712
-71.1462
-65.2525
-82.2599
-81.986
-97.1184
-103.165
-116.543
-128.408
-142.23
-157.498
-173.357
-190.181
-208.593
-228.848
-250.483
-272.794
-295.518
-318.247
-340.846
-363.405
-385.338
-406.135
-425.635
-443.486
-459.549
-473.763
-486.289
-497.689
-508.691
-519.944
-532.186
-545.819
-560.817
-577.198
-593.816
-609.493
-623.728
-635.524
-643.143
-646.165
-648.014
-647.837
-648.842
-650.098
-650.485
-46.1226
-51.7489
-47.8116
-59.0696
-54.0147
-68.8181
-64.467
-80.5864
-79.993
-96.3121
-101.449
-116.049
-127.372
-142.266
-158.57
-175.817
-194.286
-213.933
-234.976
-258.176
-282.697
-307.862
-333.524
-359.143
-384.361
-408.874
-432.138
-453.643
-472.816
-489.42
-503.359
-514.849
-524.161
-531.976
-539.637
-548.273
-558.787
-571.961
-587.356
-603.603
-619.557
-633.663
-642.872
-646.425
-647.915
-647.528
-647.27
-647.583
-648.224
-648.66
-43.9963
-48.6835
-46.0793
-55.3045
-52.3405
-64.3326
-63.0883
-76.5832
-77.2622
-92.8856
-97.7508
-113.176
-123.763
-139.521
-155.87
-173.969
-194.221
-215.881
-238.215
-262.443
-289.27
-317.25
-345.701
-374.641
-403.355
-431.235
-457.727
-482.044
-503.52
-521.798
-536.312
-546.878
-553.901
-558.178
-561.086
-564.65
-570.765
-580.246
-593.6
-610.031
-627.71
-641.661
-648.783
-650.892
-650.312
-649.112
-647.737
-646.576
-645.941
-645.893
-39.9168
-45.1795
-43.3986
-51.1623
-49.4789
-59.1284
-59.7134
-70.6693
-73.9525
-86.5686
-93.061
-108.144
-118.133
-134.553
-150.318
-169.034
-190.223
-213.348
-238.037
-263.89
-292.013
-322.549
-354.455
-387.026
-419.682
-451.753
-482.368
-510.585
-535.609
-556.569
-572.495
-583.206
-588.651
-589.156
-586.531
-583.182
-581.821
-584.508
-594.464
-611.624
-630.47
-645.469
-652.834
-655.102
-653.189
-650.565
-647.222
-644.201
-642.31
-641.505
-35.6277
-40.4894
-40.2297
-46.2187
-46.1258
-53.7631
-55.1041
-64.3763
-68.5379
-79.325
-86.7403
-100.625
-111.013
-127.334
-142.534
-161.478
-182.664
-206.411
-233.045
-261.477
-291.556
-324.225
-359.273
-395.724
-432.855
-469.806
-505.525
-538.924
-568.74
-593.773
-612.98
-625.234
-630.022
-627.345
-618.262
-605.572
-593.509
-586.199
-589.834
-604.211
-625.129
-641.593
-652.69
-654.308
-653.098
-649.529
-645.02
-640.622
-637.542
-635.751
-31.7228
-35.1993
-36.6102
-41.0414
-42.2137
-48.1607
-50.1685
-57.8839
-62.0141
-71.7217
-79.2481
-91.5698
-102.314
-118.168
-132.943
-151.995
-172.738
-196.3
-223.707
-254.151
-286.704
-321.892
-359.909
-400.314
-442.274
-484.791
-526.69
-566.44
-602.508
-633.332
-657.346
-672.945
-678.835
-674.307
-659.653
-636.805
-609.802
-585.566
-576.051
-585.526
-608.424
-629.117
-643.005
-650.728
-653.199
-651.521
-647.089
-641.47
-637.034
-634.135
-28.0619
-30.7027
-32.9292
-35.7392
-38.1518
-42.2305
-45.1653
-51.0892
-55.1985
-63.7676
-70.8256
-82.1988
-92.5273
-107.381
-121.72
-140.488
-160.848
-184.256
-211.249
-242.51
-277.179
-314.861
-356.009
-400.386
-447.315
-495.832
-544.593
-591.956
-635.91
-674.425
-705.673
-726.995
-736.637
-732.92
-714.472
-680.925
-635.288
-589.291
-561.262
-556.555
-575.961
-607.984
-633.816
-653.339
-662.593
-663.132
-658.374
-651.341
-645.006
-640.916
-25.6923
-26.0529
-29.0116
-30.9469
-33.9139
-36.8169
-40.1072
-44.7761
-48.5865
-55.8529
-62.0239
-72.7284
-82.1458
-95.8848
-109.763
-127.328
-147.048
-170.455
-196.833
-227.63
-263.436
-303.27
-347.266
-395.461
-447.527
-502.457
-558.83
-614.877
-668.454
-716.984
-757.53
-786.893
-803.005
-802.805
-784.427
-745.684
-682.372
-608.812
-550.123
-528.56
-542.292
-586.097
-626.273
-659.618
-676.711
-680.137
-674.321
-665.478
-658
-654.597
-24.3762
-22.8364
-25.4537
-27.0463
-29.4132
-32.0063
-34.8904
-38.7988
-42.5633
-48.3813
-54.4031
-63.145
-71.9462
-84.2614
-97.3689
-113.783
-132.308
-155.115
-181.186
-211.318
-246.958
-287.972
-333.946
-385.465
-442.628
-504.257
-568.671
-634.507
-699.415
-759.966
-812.207
-852.924
-879.526
-885.954
-871.016
-836.005
-755.074
-659.185
-571.87
-526.936
-526.443
-568.274
-621.221
-661.26
-680.609
-684.224
-678.697
-671.15
-665.551
-663.841
-30.8391
-24.9528
-21.561
-24.1112
-25.2059
-28.0823
-30.2534
-33.3301
-37.1624
-41.0354
-47.6831
-54.8822
-62.8653
-73.7778
-85.6834
-100.635
-118.222
-139.826
-165.107
-194.691
-230.019
-271.105
-318.082
-371.897
-433.697
-501.475
-574.223
-650.632
-728.354
-801.83
-868.065
-924.608
-963.837
-981.68
-970.534
-932.331
-856.355
-752.974
-653.003
-586.844
-578.732
-598.386
-634.419
-662.579
-675.839
-677.106
-671.844
-666.548
-664.99
-666.162
78.6641
74.0451
71.6338
70.2161
69.5014
69.2371
69.1334
69.1907
69.4349
69.9249
70.6531
71.6569
72.909
74.3635
76.0928
78.1446
80.4951
83.1574
86.0914
89.3029
92.7206
96.4453
100.489
104.778
109.183
113.606
118.006
122.4
126.761
130.864
134.441
137.476
139.833
141.211
141.483
140.324
137.217
131.82
123.715
112.297
97.1365
77.6732
53.1612
22.8644
-13.8249
-58.0199
-110.136
-169.514
-241.849
-318.167
75.5284
70.8565
69.11
67.6496
66.6441
66.026
65.5904
65.3435
65.3335
65.5339
66.0164
66.7753
67.6827
68.7537
70.0739
71.6661
73.4971
75.5696
77.8027
80.2326
82.8169
85.659
88.7946
92.1584
95.6344
99.0736
102.339
105.358
108.125
110.586
112.296
113.132
113.099
111.987
109.535
105.391
99.0546
90.1604
78.3189
62.8488
43.2381
18.9539
-10.7163
-46.5387
-89.085
-139.564
-198.177
-264.334
-341.55
-421.921
71.3564
66.5956
65.6245
64.2247
62.9858
61.9852
61.3301
60.9008
60.6675
60.6358
60.92
61.3679
61.907
62.6371
63.6243
64.8861
66.3419
67.8798
69.4847
71.2118
73.1346
75.1942
77.3389
79.4843
81.6337
83.797
85.8344
87.5077
88.6479
89.2644
89.035
87.7495
85.3253
81.5216
76.1279
68.8752
59.0974
46.4717
30.6154
10.847
-13.3247
-42.4744
-77.2862
-118.485
-166.625
-222.695
-287.016
-358.722
-437.965
-517.268
66.6028
61.5166
61.19
59.6128
58.3454
57.3195
56.4497
55.8156
55.3912
55.1381
55.137
55.199
55.4102
55.8566
56.5356
57.3836
58.3639
59.3621
60.3912
61.4347
62.5911
63.8146
65.0233
66.1525
67.0407
67.7307
68.2168
68.2993
67.7103
66.6213
64.2879
60.758
55.8491
49.3078
40.834
30.2078
16.9509
0.53506
-19.3883
-43.4435
-72.1452
-105.987
-145.569
-191.557
-244.488
-305.147
-373.785
-448.825
-528.468
-604.362
61.2066
55.8823
56.0985
53.8899
52.6294
51.5812
50.6308
49.8513
49.2628
48.764
48.5003
48.2054
48.0828
48.1869
48.4532
48.8566
49.2082
49.5837
50.013
50.5016
50.9453
51.267
51.3442
51.2723
50.8988
50.1356
48.9852
47.3238
44.8951
41.5945
37.2015
31.5012
24.164
14.8837
3.41632
-10.5134
-27.3503
-47.4855
-71.328
-99.4089
-132.173
-170.126
-213.77
-263.612
-320.091
-383.858
-455.059
-531.74
-610.752
-681.926
55.3181
49.9586
50.5055
47.4225
46.1854
44.7811
43.7662
42.8275
41.9865
41.3268
40.8215
40.2787
39.9012
39.5967
39.2788
38.9861
38.6455
38.3098
37.9618
37.6044
37.1784
36.5792
35.727
34.4656
32.8496
30.6574
27.7981
24.227
19.8349
14.4311
7.83935
-0.24894
-10.078
-21.9689
-36.322
-53.3863
-73.4702
-97.0045
-124.333
-155.872
-192.054
-233.264
-279.91
-332.384
-390.997
-456.283
-528.412
-605.365
-682.533
-747.403
49.0661
43.9864
44.2447
40.4128
39.004
37.4865
36.1847
34.9928
33.9227
32.9808
32.0343
31.1432
30.3799
29.568
28.6929
27.7403
26.7141
25.6127
24.4263
23.0829
21.5792
19.8314
17.7824
15.2289
12.2104
8.59099
4.22369
-1.08922
-7.46742
-15.0453
-23.9181
-34.3316
-46.5982
-61.0443
-77.9881
-97.769
-120.736
-147.141
-177.3
-211.538
-250.186
-293.609
-342.107
-395.938
-455.321
-520.679
-592.286
-668.17
-742.008
-798.687
41.55
37.9539
36.5841
32.7922
31.2533
29.4294
27.8129
26.4378
25.1542
23.8331
22.4592
21.0694
19.6097
18.0675
16.5037
14.8543
13.0943
11.15
8.986
6.5495
3.82557
0.866246
-2.43184
-6.23182
-10.6694
-15.8602
-21.8921
-28.8369
-36.9492
-46.4227
-57.4664
-70.2132
-84.8425
-101.643
-120.953
-143.026
-168.174
-196.73
-228.902
-264.956
-305.158
-349.718
-398.869
-452.819
-511.764
-576.109
-645.791
-718.748
-787.747
-834.587
32.9271
29.4976
27.4701
24.3482
23.0084
20.7433
18.7872
17.0818
15.3039
13.5878
11.7874
9.88149
7.79914
5.57434
3.18348
0.634255
-2.04812
-4.91596
-8.05882
-11.5238
-15.4383
-19.8391
-24.6701
-29.9554
-35.8995
-42.5521
-50.1185
-58.7539
-68.6121
-79.8829
-92.7417
-107.391
-123.992
-142.772
-163.98
-187.869
-214.689
-244.661
-278.031
-314.987
-355.701
-400.362
-449.103
-502.064
-559.447
-621.678
-688.45
-757.142
-819.519
-855.03
24.0185
19.0428
18.3713
15.5424
14.271
11.8603
9.75777
7.54588
5.10654
2.64274
0.0980814
-2.47364
-5.15501
-8.0804
-11.2979
-14.7773
-18.5418
-22.5843
-26.9289
-31.5814
-36.5907
-42.1479
-48.3523
-55.1377
-62.6213
-70.9124
-80.0879
-90.2414
-101.569
-114.345
-128.766
-145.053
-163.316
-183.646
-206.249
-231.328
-259.117
-289.818
-323.559
-360.536
-400.902
-444.72
-492.084
-543.103
-597.916
-656.952
-720.066
-783.479
-838.186
-863.392
13.7409
8.64078
9.16345
5.57147
4.39855
1.98638
0.0199108
-2.45592
-5.27726
-8.42865
-11.7974
-15.3329
-19.0342
-22.9013
-26.9128
-31.2415
-36.0272
-41.2209
-46.7706
-52.7453
-59.1366
-66.0225
-73.5071
-81.715
-90.6122
-100.245
-110.882
-122.619
-135.499
-149.644
-165.295
-182.619
-201.853
-223.197
-246.686
-272.414
-300.555
-331.268
-364.71
-400.969
-440.112
-482.231
-527.363
-575.55
-626.928
-681.781
-740.057
-798.179
-846.502
-864.174
1.84416
-2.70634
-1.20258
-5.65808
-6.32573
-9.31232
-11.3606
-14.0235
-16.9714
-20.2764
-24.0072
-28.3227
-33.1333
-38.157
-43.3496
-48.8403
-54.6843
-60.9569
-67.7126
-74.9639
-82.6894
-90.8437
-99.5802
-109.005
-119.282
-130.319
-142.144
-155.016
-169.054
-184.345
-201.014
-219.288
-239.241
-260.968
-284.677
-310.468
-338.383
-368.51
-400.917
-435.724
-473.005
-512.74
-554.918
-599.495
-646.463
-696.512
-748.908
-800.836
-843.667
-858.839
-9.71371
-13.1387
-11.7711
-16.2394
-16.3229
-20.2983
-22.7126
-26.1434
-29.7005
-33.4064
-37.4631
-42.1459
-47.3731
-53.1907
-59.6926
-66.6421
-73.7438
-81.1186
-89.0247
-97.528
-106.639
-116.296
-126.386
-136.953
-148.17
-160.332
-173.356
-187.243
-202.187
-218.305
-235.624
-254.247
-274.427
-296.293
-319.821
-345.075
-372.18
-401.168
-432.079
-464.924
-499.687
-536.379
-574.963
-615.335
-657.357
-701.591
-746.41
-789.056
-822.292
-837.391
-18.4137
-23.6359
-19.6409
-25.2787
-24.8306
-29.9029
-32.3454
-36.8076
-41.3571
-46.0854
-51.248
-56.7513
-62.4647
-68.7967
-76.0401
-83.9798
-92.5184
-101.504
-110.756
-120.397
-130.586
-141.419
-152.873
-164.831
-177.212
-190.247
-204.026
-218.68
-234.199
-250.721
-268.403
-287.293
-307.38
-328.789
-351.715
-376.147
-402.015
-429.388
-458.279
-488.67
-520.543
-553.814
-588.343
-623.87
-660.665
-697.843
-733.472
-763.14
-780.929
-793.289
-26.1723
-31.8138
-25.6027
-34.2769
-32.3892
-39.0202
-40.8612
-46.2161
-51.27
-56.8902
-63.432
-70.3139
-77.3141
-84.8428
-92.765
-101.176
-110.53
-120.861
-131.73
-142.817
-154.34
-166.333
-178.827
-191.927
-205.505
-219.526
-234.066
-249.214
-265.124
-281.867
-299.463
-318.023
-337.701
-358.525
-380.463
-403.598
-428.005
-453.531
-480.136
-507.841
-536.519
-566.029
-596.176
-626.868
-657.647
-687.244
-713.653
-732.466
-738.925
-745.291
-31.4475
-38.9639
-32.8345
-42.8743
-39.3124
-48.0136
-48.7892
-55.4817
-60.3522
-66.5634
-73.9752
-81.723
-90.2119
-99.408
-108.815
-118.496
-128.755
-139.755
-151.742
-164.391
-177.338
-190.751
-204.497
-218.544
-232.983
-247.844
-263.114
-278.665
-294.684
-311.282
-328.604
-346.719
-365.646
-385.462
-406.283
-428.036
-450.609
-474.077
-498.369
-523.289
-548.737
-574.584
-600.516
-626.567
-651.607
-674.12
-692.325
-704.002
-711.035
-713.496
-36.1618
-44.9997
-38.0573
-50.7413
-44.8491
-56.333
-55.5779
-64.5538
-68.674
-75.9903
-83.662
-91.7849
-101.223
-111.592
-122.46
-134
-145.968
-158.035
-170.717
-184.623
-199.11
-213.779
-228.897
-244.335
-259.847
-275.399
-291.158
-307.078
-323.195
-339.549
-356.288
-373.55
-391.463
-410.11
-429.469
-449.608
-470.575
-492.075
-513.952
-536.266
-558.83
-581.305
-603.566
-625.262
-645.455
-662.831
-675.333
-681.28
-687.594
-689.524
-41.8992
-49.9845
-41.2948
-56.1417
-48.6532
-63.1327
-60.3948
-72.2905
-75.2646
-84.4222
-92.1153
-100.76
-110.927
-121.817
-133.72
-146.794
-160.593
-174.777
-189.051
-203.826
-219.649
-235.887
-252.17
-268.713
-285.465
-302.064
-318.446
-334.623
-350.672
-366.605
-382.6
-398.863
-415.576
-432.845
-450.79
-469.349
-488.367
-507.944
-527.97
-548.046
-568.064
-587.875
-607.077
-625.227
-641.537
-654.249
-661.84
-666.845
-668.991
-671.568
-45.5242
-52.9901
-44.7581
-59.9811
-51.3569
-67.6956
-63.227
-77.4929
-79.415
-90.8734
-98.354
-108.451
-119.329
-130.563
-143.058
-157.026
-172.059
-188.106
-204.776
-221.385
-238.316
-256.17
-274.377
-292.352
-310.173
-327.789
-344.998
-361.654
-377.731
-393.322
-408.559
-423.604
-438.736
-454.291
-470.417
-487.248
-504.849
-522.866
-541.058
-559.517
-577.886
-595.351
-611.73
-626.785
-639.566
-648.551
-652.844
-656.449
-657.779
-659.544
-47.2414
-53.8589
-46.7586
-61.4767
-52.7185
-70.0889
-64.537
-80.7305
-81.2204
-94.7181
-101.404
-113.439
-125.027
-137.287
-150.857
-165.473
-181.203
-198.522
-217.196
-236.284
-255.298
-274.552
-294.367
-314.374
-333.956
-352.968
-371.22
-388.596
-404.852
-420.06
-434.319
-447.988
-461.523
-475.19
-489.395
-504.368
-520.061
-536.577
-553.848
-571.325
-588.012
-603.469
-617.646
-629.67
-638.505
-643.37
-647.554
-648.875
-650.281
-651.158
-47.0991
-53.0087
-47.8268
-60.631
-53.5761
-69.9034
-64.94
-81.5816
-81.2434
-96.311
-102.136
-115.63
-127.113
-140.874
-155.985
-171.539
-188.059
-206.166
-226.055
-247.335
-269.156
-291.022
-312.854
-334.756
-356.456
-377.376
-397.165
-415.691
-432.55
-447.76
-461.434
-473.754
-485.05
-496.195
-507.822
-520.417
-534.407
-549.701
-565.972
-582.689
-598.648
-613.054
-625.078
-633.525
-637.635
-640.1
-641.83
-643.503
-645.027
-645.634
-45.6027
-51.0583
-47.4542
-57.9387
-53.7732
-67.3546
-64.265
-79.6076
-79.9817
-95.5109
-100.499
-115.287
-126.256
-141.215
-157.238
-174.223
-192.539
-211.911
-232.454
-255.061
-279.136
-303.81
-328.688
-353.283
-377.525
-400.964
-423.056
-443.283
-461.318
-476.913
-490
-500.897
-510.227
-518.497
-526.81
-536.302
-547.547
-560.934
-576.663
-593.598
-609.349
-623.101
-633.158
-637.991
-638.482
-638.729
-639.166
-640.665
-642.094
-642.751
-43.5096
-48.07
-45.7789
-54.2746
-52.148
-63.0748
-62.9447
-75.2197
-77.6083
-91.9013
-97.3115
-112.599
-122.757
-138.715
-154.726
-172.667
-192.74
-214.093
-236.15
-259.993
-286.091
-313.331
-341.115
-369.097
-396.68
-423.349
-448.452
-471.283
-491.378
-508.311
-521.715
-531.647
-538.412
-543.097
-547.147
-552.011
-559.405
-570.364
-585.264
-601.952
-618.901
-633.072
-641.013
-642.714
-642.589
-640.685
-639.996
-639.967
-640.348
-640.925
-39.4159
-44.6079
-43.124
-50.2798
-49.319
-58.1326
-59.5212
-69.5652
-74.06
-85.8007
-93.1021
-107.303
-117.349
-133.924
-149.315
-168.122
-189.114
-211.844
-236.123
-261.689
-289.437
-319.264
-350.189
-381.791
-413.281
-443.984
-473.062
-499.634
-522.922
-542.14
-556.48
-566.012
-571.023
-571.969
-570.537
-569.172
-570.157
-575.634
-587.624
-605.715
-626.087
-641.258
-647.521
-649.43
-647.14
-644.217
-641.227
-639.036
-637.872
-637.709
-35.0795
-39.8843
-39.9521
-45.4291
-45.8951
-52.9133
-54.9259
-63.5607
-68.3615
-78.6582
-87.0631
-99.8303
-110.528
-126.77
-141.675
-160.858
-181.771
-205.403
-231.772
-259.699
-289.247
-321.366
-355.548
-390.967
-426.858
-462.35
-496.419
-527.932
-555.674
-578.487
-595.557
-606.03
-609.691
-607.04
-599.417
-589.219
-580.196
-576.949
-584.1
-601.882
-625.122
-644.511
-652.855
-652.88
-649.687
-645.17
-640.299
-636.022
-633.32
-632.251
-31.2514
-34.5522
-36.464
-40.239
-41.9843
-47.4482
-49.9374
-57.3174
-61.9193
-71.3386
-79.1429
-91.1191
-102.212
-117.616
-132.301
-151.639
-172.038
-195.506
-222.803
-252.98
-284.957
-319.475
-356.791
-396.132
-436.749
-477.69
-517.735
-555.39
-589.03
-617.242
-638.579
-651.496
-655.377
-650.328
-636.981
-617.331
-594.856
-576.241
-571.764
-585.387
-611.386
-635.256
-650.735
-651.662
-648.475
-643.476
-638.121
-632.666
-628.72
-626.34
-27.6741
-30.099
-32.6707
-35.2027
-37.8278
-41.5389
-44.8779
-50.5022
-55.2379
-63.4642
-70.777
-81.8325
-92.558
-107.181
-121.231
-140.24
-160.484
-183.839
-210.612
-241.625
-275.977
-313.147
-353.567
-396.879
-442.459
-489.284
-536.023
-581.044
-622.344
-657.902
-685.798
-703.625
-710.039
-704.167
-686.12
-656.487
-617.095
-577.522
-553.829
-557.124
-580.906
-612.184
-634.709
-646.425
-650.125
-648.124
-642.448
-635.701
-630.451
-627.172
-25.2889
-25.4913
-28.7791
-30.3771
-33.683
-36.2026
-39.7678
-44.038
-48.7736
-55.3879
-62.3378
-72.2648
-82.0006
-96.0084
-109.693
-127.254
-146.921
-170.475
-196.657
-227.139
-262.706
-302.198
-345.494
-392.738
-443.427
-496.606
-550.877
-604.333
-654.963
-700.178
-736.89
-761.821
-772.98
-769.129
-748.972
-712.355
-656.117
-592.67
-539.302
-520.386
-538.257
-583.402
-623.915
-650.322
-661.701
-661.459
-655.219
-646.668
-639.4
-635.015
-24.1258
-22.3311
-25.2417
-26.5358
-29.2405
-31.3817
-34.7322
-38.1757
-42.5087
-47.8509
-54.5507
-63.0092
-71.8974
-84.4193
-97.3533
-113.832
-132.459
-155.34
-181.329
-211.242
-246.661
-287.418
-332.881
-383.477
-439.282
-499.178
-561.402
-624.353
-685.865
-742.838
-791.106
-826.644
-846.571
-847.802
-828.561
-792.101
-722.523
-630.857
-551.376
-505.853
-508.036
-554.194
-611.539
-651.19
-670.153
-674.285
-667.089
-658.091
-650.438
-647.252
-30.4475
-24.554
-21.2995
-23.7325
-24.929
-27.668
-30.0261
-32.9812
-36.9917
-40.5554
-47.5186
-54.9661
-62.8353
-73.954
-85.8061
-100.763
-118.405
-140.273
-165.575
-195.058
-230.022
-271.148
-317.774
-370.683
-431.115
-497.325
-567.805
-640.988
-714.936
-784.494
-845.98
-896.45
-929.197
-938.917
-922.876
-878.587
-807.152
-703.857
-602.974
-533.894
-522.524
-562.757
-609.655
-646.269
-666.502
-670.294
-665.562
-659.02
-654.053
-653.054
-23.7854
-18.5195
-18.5352
-21.1509
-21.1793
-23.8421
-25.4732
-28.4445
-32.4198
-34.8871
-41.5609
-48.1177
-55.8133
-65.4898
-76.9779
-90.0985
-106.413
-127.599
-152.556
-181.635
-216.465
-257.65
-305.723
-361.625
-425.704
-498.897
-580.243
-667.106
-755.69
-842.299
-921.369
-988.057
-1038.25
-1066.19
-1063.4
-1016.38
-921.114
-807.726
-708.673
-648.31
-628.171
-633.209
-650.193
-662.733
-666.45
-661.817
-654.904
-651.12
-651.303
-653.068
-19
-15.1683
-16.8261
-18.5845
-19.8484
-21.4356
-24.0283
-26.8021
-30.6618
-33.6536
-38.2463
-44.1265
-51.4364
-60.6111
-72.2603
-85.9521
-102.091
-122.774
-148.658
-179.829
-217.309
-262.224
-315.065
-377.191
-450.46
-535.68
-630.441
-733.475
-840.97
-946.284
-1041.06
-1119.28
-1177.55
-1201.17
-1181.19
-1112.07
-1022.93
-928.588
-854.748
-801.015
-767.513
-743.85
-723.324
-703.28
-682.172
-661.971
-649.486
-646.618
-649.478
-652.219
-14.3485
-14.0673
-15.1516
-16.4795
-18.239
-20.0829
-22.4282
-25.188
-28.4328
-31.8631
-36.2387
-41.7711
-48.7488
-57.972
-70.2317
-85.3707
-102.873
-124.978
-153.01
-188.313
-231.038
-281.785
-342.753
-415.928
-502.855
-602.242
-714.716
-838.682
-966.863
-1086.44
-1192.74
-1279.73
-1330.46
-1334.1
-1301.32
-1241.9
-1164.18
-1090.28
-1022.07
-962.792
-908.695
-859.744
-812.248
-765.109
-720.054
-682.363
-658.473
-649.599
-652.737
-656.369
-11.216
-12.4262
-13.299
-14.4533
-15.8325
-17.5334
-19.4985
-21.8454
-24.7696
-28.2419
-32.9372
-38.8119
-46.1215
-55.603
-68.353
-84.2263
-103.418
-128.074
-159.719
-199.937
-249.22
-308.529
-379.728
-465.448
-567.5
-687.96
-826.195
-973.888
-1118.53
-1253.07
-1372.44
-1459.39
-1496.98
-1498.02
-1465.51
-1410.19
-1339.53
-1267.35
-1189.94
-1114.76
-1041.4
-969.474
-901.056
-835.372
-774.795
-722.536
-683.416
-662.882
-660.442
-666.581
-8.5494
-9.71969
-10.483
-11.3218
-12.2937
-13.5823
-15.1848
-17.1394
-19.6523
-22.898
-27.4772
-33.1869
-40.5501
-50.2171
-63.4895
-80.2266
-101.068
-128.026
-163.773
-209.55
-266.283
-334.848
-416.874
-518.18
-643.145
-791.558
-956.474
-1126.13
-1290.77
-1443.55
-1568.54
-1649.7
-1687.79
-1685.69
-1651.26
-1591.43
-1517.82
-1432.03
-1340.71
-1247.24
-1155.21
-1065.75
-980.842
-902.103
-830.944
-769.442
-720.362
-687.44
-674.449
-685.911
-5.58982
-6.38434
-6.79872
-7.10903
-7.60461
-8.24398
-9.20864
-10.7171
-12.6657
-15.3356
-19.3154
-24.6419
-31.5533
-40.7729
-54.1012
-71.52
-93.3829
-122.223
-161.724
-213.178
-277.909
-356.913
-453.95
-576.628
-729.244
-906.844
-1098.73
-1292.57
-1479.93
-1643.97
-1768.3
-1849.22
-1883.87
-1875.14
-1832.09
-1762.95
-1674.62
-1572.83
-1463.3
-1352.74
-1243.84
-1139.73
-1042.88
-954.831
-877.047
-810.705
-756.633
-717.065
-698.168
-704.621
-2.20347
-2.36329
-2.34983
-2.19743
-2.10346
-2.01829
-2.00428
-2.50628
-3.53732
-5.34851
-8.12559
-12.4036
-18.3628
-26.6338
-39.2415
-56.835
-79.3274
-109.614
-152.285
-209.255
-282.96
-375.952
-492.768
-640.658
-822.749
-1031.55
-1250.57
-1468.29
-1668.59
-1836.88
-1963.05
-2039.07
-2063.09
-2043.11
-1987.14
-1900.72
-1793.21
-1673.62
-1547.61
-1421.36
-1299.48
-1184.62
-1079.15
-985.137
-903.489
-835.254
-781.226
-741.991
-720.284