/*--------------------------------*- C++ -*----------------------------------*\
| =========                 |                                                 |
| \\      /  F ield         | OpenFOAM: The Open Source CFD Toolbox           |
|  \\    /   O peration     | Version:  v1912                                 |
|   \\  /    A nd           | Website:  www.openfoam.com                      |
|    \\/     M anipulation  |                                                 |
\*---------------------------------------------------------------------------*/
FoamFile
{
    version     2.0;
    format      ascii;
    class       surfaceScalarField;
    location    "0.06";
    object      phi;
}
// * * * * * * * * * * * * * * * * * * * * * * * * * * * * * * * * * * * * * //

dimensions      [0 3 -1 0 0 0 0];
oriented        oriented;


internalField   nonuniform List<scalar> 
13060
(
0.00578911
0.988371
-0.99416
0.00769877
0.945515
-0.947425
0.00900765
0.899564
-0.900872
0.0101751
0.85606
-0.857227
0.0109683
0.815187
-0.81598
0.0114975
0.776784
-0.777314
0.0121525
0.739789
-0.740444
0.0130025
0.704384
-0.705234
0.0137363
0.670731
-0.671465
0.0143642
0.638569
-0.639197
0.0147868
0.608097
-0.60852
0.0151021
0.579017
-0.579332
0.0154252
0.551219
-0.551543
0.0157598
0.524655
-0.52499
0.0160583
0.499233
-0.499531
0.016289
0.474918
-0.475149
0.0164653
0.451756
-0.451933
0.0166453
0.429777
-0.429957
0.0167191
0.408871
-0.408945
0.0166975
0.388852
-0.38883
0.0165762
0.369711
-0.369589
0.0163393
0.351539
-0.351302
0.0159258
0.334262
-0.333848
0.0153646
0.317837
-0.317275
0.0148233
0.302082
-0.301541
0.0144157
0.287079
-0.286672
0.0140587
0.27292
-0.272564
0.0136552
0.259483
-0.25908
0.0131643
0.246746
-0.246255
0.0126097
0.234615
-0.23406
0.0120392
0.223152
-0.222582
0.0114524
0.212436
-0.21185
0.0107472
0.202371
-0.201666
0.00992782
0.192733
-0.191914
0.00908813
0.183609
-0.182769
0.00819644
0.175077
-0.174185
0.00725158
0.166982
-0.166037
0.00630765
0.159346
-0.158402
0.00537818
0.152203
-0.151273
0.00444072
0.14556
-0.144623
0.00350973
0.139259
-0.138328
0.00257113
0.13333
-0.132392
0.00164886
0.127757
-0.126835
0.000776137
0.122529
-0.121656
-4.87903e-05
0.117536
-0.116711
-0.000883717
0.113063
-0.112228
-0.00167804
0.108354
-0.10756
-0.00228998
0.104763
-0.104152
-0.00202243
0.0961883
-0.0964558
0.0668086
-0.0688311
0.00595431
0.982417
0.00728526
0.944184
0.00799726
0.898852
0.00819855
0.855859
0.00858515
0.8148
0.00917475
0.776195
0.00982987
0.739134
0.0101828
0.704031
0.0104454
0.670468
0.0106696
0.638345
0.0106394
0.608128
0.0106824
0.578974
0.0107626
0.551139
0.0108528
0.524565
0.0108879
0.499197
0.0108032
0.475003
0.0106121
0.451947
0.0104509
0.429938
0.0103191
0.409003
0.010184
0.388987
0.0100664
0.369828
0.0100663
0.351539
0.0101673
0.334161
0.0102702
0.317734
0.0101935
0.302159
0.00984146
0.287431
0.00931608
0.273446
0.00871335
0.260086
0.00806174
0.247397
0.00738218
0.235294
0.00662367
0.223911
0.00584681
0.213213
0.00514844
0.20307
0.00448277
0.193399
0.00376244
0.184329
0.00305655
0.175783
0.0023441
0.167694
0.00160864
0.160081
0.000871993
0.152939
0.000162745
0.146269
-0.000551277
0.139973
-0.00122822
0.134007
-0.00184938
0.128378
-0.00239775
0.123077
-0.00288926
0.118028
-0.0032507
0.113425
-0.00364383
0.108748
-0.00351627
0.104636
-0.00260028
0.0952723
0.0642083
0.00546941
0.976948
0.0063464
0.943307
0.00668183
0.898516
0.00667767
0.855863
0.00673932
0.814738
0.00688336
0.776051
0.00711556
0.738902
0.00712651
0.70402
0.00721698
0.670378
0.00708953
0.638472
0.00705324
0.608164
0.00711338
0.578913
0.00706035
0.551192
0.00701928
0.524606
0.00698573
0.499231
0.00692763
0.475061
0.00683977
0.452035
0.0066902
0.430088
0.00651048
0.409182
0.00627855
0.389219
0.00590947
0.370197
0.00538973
0.352059
0.00469929
0.334851
0.00401759
0.318415
0.00343773
0.302739
0.00304868
0.28782
0.00271551
0.273779
0.00231186
0.260489
0.00185224
0.247857
0.00138742
0.235759
0.000955573
0.224343
0.000466019
0.213703
-0.000137066
0.203673
-0.000809488
0.194071
-0.0014308
0.184951
-0.00206568
0.176418
-0.00268478
0.168313
-0.00326042
0.160657
-0.00379702
0.153476
-0.00429158
0.146764
-0.0047303
0.140412
-0.00510741
0.134384
-0.00540866
0.12868
-0.00562357
0.123292
-0.0057453
0.118149
-0.00571288
0.113392
-0.00558092
0.108616
-0.00480378
0.103859
-0.00323878
0.0937073
0.0609696
0.00503098
0.971917
0.00533837
0.943
0.00520697
0.898648
0.00504867
0.856021
0.0048103
0.814977
0.00436991
0.776491
0.00392076
0.739351
0.00365003
0.704291
0.00340157
0.670626
0.00289551
0.638978
0.00271462
0.608345
0.00249033
0.579138
0.00225355
0.551429
0.00198182
0.524878
0.00164384
0.499569
0.00124825
0.475457
0.000894924
0.452388
0.000585884
0.430397
0.000311984
0.409456
5.70127e-05
0.389474
-0.000154636
0.370409
-0.000255345
0.352159
-0.000293043
0.334889
-0.000415119
0.318537
-0.000789843
0.303114
-0.00134484
0.288375
-0.00191636
0.274351
-0.00250454
0.261078
-0.00313339
0.248486
-0.00382782
0.236453
-0.00456278
0.225077
-0.0052237
0.214364
-0.00576701
0.204216
-0.00627283
0.194577
-0.00679021
0.185468
-0.00723667
0.176864
-0.00764747
0.168724
-0.00802913
0.161039
-0.00836209
0.153809
-0.00862923
0.147031
-0.00879553
0.140578
-0.00885168
0.13444
-0.00880361
0.128632
-0.00862612
0.123115
-0.00830276
0.117826
-0.00782598
0.112916
-0.00727992
0.10807
-0.00612772
0.102707
-0.00393837
0.0915179
0.0570312
0.0039622
0.967954
0.00383072
0.943131
0.00317666
0.899302
0.0026923
0.856505
0.00224749
0.815422
0.001934
0.776805
0.00147395
0.739811
0.000922968
0.704842
0.000433993
0.671115
-0.000139303
0.639552
-0.000661357
0.608867
-0.00113989
0.579616
-0.00148367
0.551773
-0.00174498
0.525139
-0.00198058
0.499805
-0.00220083
0.475677
-0.00250364
0.452691
-0.0028709
0.430764
-0.00326057
0.409846
-0.00372928
0.389942
-0.00435969
0.371039
-0.00519768
0.352997
-0.00610139
0.335793
-0.00699952
0.319436
-0.0076636
0.303778
-0.00818748
0.288899
-0.00864526
0.274808
-0.00907803
0.26151
-0.00948338
0.248891
-0.00985748
0.236828
-0.010189
0.225409
-0.0105933
0.214768
-0.0110898
0.204712
-0.0115368
0.195024
-0.0119017
0.185833
-0.0122353
0.177198
-0.0125005
0.168989
-0.012686
0.161224
-0.0127727
0.153896
-0.0127457
0.147004
-0.0126315
0.140464
-0.0124115
0.13422
-0.012064
0.128284
-0.0115812
0.122632
-0.0109598
0.117205
-0.0101315
0.112087
-0.00918282
0.107121
-0.00755735
0.101081
-0.00467778
0.0886384
0.0523534
0.00228485
0.96567
0.00161448
0.943802
0.000452772
0.900463
0.000296251
0.856662
-0.000400252
0.816118
-0.00105359
0.777458
-0.00188656
0.740644
-0.00279075
0.705746
-0.00366527
0.67199
-0.00445103
0.640337
-0.00505878
0.609475
-0.00574245
0.5803
-0.00629321
0.552324
-0.00688812
0.525734
-0.0075116
0.500428
-0.00807104
0.476236
-0.00860272
0.453223
-0.00911059
0.431272
-0.00957814
0.410313
-0.00996898
0.390333
-0.0102521
0.371322
-0.0104855
0.353231
-0.0107199
0.336027
-0.011064
0.31978
-0.0116174
0.304331
-0.0123044
0.289586
-0.0130099
0.275514
-0.0136621
0.262163
-0.0143083
0.249537
-0.0149911
0.23751
-0.0156324
0.22605
-0.0160904
0.215226
-0.0163949
0.205017
-0.0166813
0.195311
-0.0169278
0.186079
-0.0170653
0.177335
-0.0171166
0.16904
-0.0170749
0.161182
-0.0169469
0.153768
-0.0167139
0.146771
-0.0163341
0.140084
-0.0158149
0.133701
-0.0151616
0.127631
-0.0143608
0.121831
-0.0134252
0.116269
-0.0123271
0.110989
-0.011044
0.105838
-0.00901885
0.099056
-0.00540925
0.0850288
0.0469442
0.000777156
0.964892
-0.000308066
0.944887
-0.00149694
0.901652
-0.00220118
0.857366
-0.00319214
0.817109
-0.00407502
0.778341
-0.00525493
0.741824
-0.00623551
0.706727
-0.00718766
0.672942
-0.00792484
0.641074
-0.00846176
0.610012
-0.00903677
0.580875
-0.00946923
0.552756
-0.00989939
0.526164
-0.0103379
0.500867
-0.0108766
0.476775
-0.0115058
0.453852
-0.0122035
0.431969
-0.0129627
0.411073
-0.0137964
0.391167
-0.0147582
0.372284
-0.0158341
0.354307
-0.0169482
0.337141
-0.0178786
0.32071
-0.0186035
0.305056
-0.0191517
0.290134
-0.0196399
0.276002
-0.0200895
0.262612
-0.0204579
0.249906
-0.0207245
0.237777
-0.0209368
0.226263
-0.0211952
0.215484
-0.0214689
0.205291
-0.021626
0.195468
-0.0216781
0.186131
-0.0216618
0.177319
-0.0215397
0.168918
-0.0213145
0.160957
-0.0209526
0.153406
-0.0204445
0.146263
-0.0198221
0.139462
-0.0190738
0.132953
-0.0181832
0.12674
-0.0171512
0.120799
-0.0160081
0.115126
-0.0147984
0.109779
-0.0131002
0.10414
-0.0105495
0.0965053
-0.00614739
0.0806266
0.0407968
0.000736671
0.964156
0.000300532
0.945323
-0.00135957
0.903312
-0.00367679
0.859683
-0.00597453
0.819407
-0.00779885
0.780165
-0.00903961
0.743064
-0.00994081
0.707628
-0.0110107
0.674012
-0.011595
0.641659
-0.0123584
0.610775
-0.0131076
0.581624
-0.0139521
0.553601
-0.01484
0.527052
-0.0156948
0.501721
-0.0165477
0.477628
-0.0173712
0.454676
-0.0181819
0.43278
-0.0189352
0.411826
-0.019564
0.391796
-0.0200467
0.372767
-0.0204483
0.354708
-0.0208379
0.337531
-0.0213487
0.321221
-0.0220585
0.305766
-0.0228481
0.290924
-0.0235659
0.27672
-0.0242057
0.263252
-0.0248276
0.250528
-0.0254724
0.238422
-0.0259984
0.226789
-0.0262573
0.215743
-0.0263162
0.20535
-0.0263165
0.195468
-0.0262416
0.186057
-0.026041
0.177119
-0.0257271
0.168604
-0.0252735
0.160504
-0.0247133
0.152846
-0.024039
0.145589
-0.023206
0.138629
-0.022227
0.131974
-0.0211214
0.125635
-0.0198842
0.119562
-0.0185097
0.113751
-0.0170916
0.108361
-0.0150362
0.102084
-0.012039
0.0935081
-0.00684408
0.0754317
0.0339527
0.00637121
0.957784
0.00417644
0.947518
0.00112208
0.906367
-0.00285685
0.863662
-0.00631499
0.822865
-0.00886188
0.782712
-0.0105246
0.744727
-0.0116244
0.708728
-0.0125968
0.674984
-0.0132615
0.642323
-0.0141896
0.611703
-0.0149717
0.582406
-0.0158896
0.554518
-0.0168178
0.52798
-0.0177925
0.502696
-0.0187961
0.478631
-0.0198206
0.4557
-0.0208779
0.433838
-0.0220267
0.412975
-0.0232888
0.393058
-0.0246308
0.374109
-0.0259902
0.356068
-0.027246
0.338787
-0.0282522
0.322227
-0.0289531
0.306467
-0.0294998
0.291471
-0.0299859
0.277206
-0.0303734
0.263639
-0.0306322
0.250786
-0.0307094
0.238499
-0.0307513
0.22683
-0.0308542
0.215846
-0.0309294
0.205425
-0.0308265
0.195365
-0.0305686
0.185799
-0.0301931
0.176743
-0.0296945
0.168106
-0.0291067
0.159916
-0.028373
0.152112
-0.0274766
0.144692
-0.0264641
0.137616
-0.0253363
0.130846
-0.0240839
0.124382
-0.0227239
0.118202
-0.0212879
0.112315
-0.019562
0.106635
-0.0172412
0.0997634
-0.0136673
0.0899342
-0.0075332
0.0692976
0.0264195
0.0176747
0.94011
0.00765263
0.95754
0.00298224
0.911037
-0.00188507
0.86853
-0.00521769
0.826198
-0.00813034
0.785625
-0.0105122
0.747109
-0.0124022
0.710618
-0.0138779
0.67646
-0.0153869
0.643832
-0.0169097
0.613226
-0.0183052
0.583802
-0.0197336
0.555947
-0.0211689
0.529415
-0.0225504
0.504078
-0.0238942
0.479975
-0.0251767
0.456983
-0.0263147
0.434976
-0.0273055
0.413965
-0.0281415
0.393894
-0.0288068
0.374774
-0.0294031
0.356664
-0.0300489
0.339432
-0.0308054
0.322983
-0.0316787
0.30734
-0.0325102
0.292302
-0.0331856
0.277881
-0.0337898
0.264244
-0.034362
0.251359
-0.0349159
0.239053
-0.0352897
0.227204
-0.0353394
0.215896
-0.0351628
0.205248
-0.0349162
0.195119
-0.0345821
0.185464
-0.0341221
0.176283
-0.0335237
0.167507
-0.0327442
0.159136
-0.0318507
0.151218
-0.0308574
0.143699
-0.0297183
0.136477
-0.0284426
0.12957
-0.0270465
0.122986
-0.0255389
0.116694
-0.0240702
0.110847
-0.0220595
0.104625
-0.0194009
0.0971048
-0.0150756
0.0856089
-0.00815987
0.0623818
0.0182596
0.0206957
0.919414
0.0061857
0.97205
0.00313728
0.914085
-0.00123483
0.872902
-0.0034832
0.828446
-0.00601619
0.788158
-0.00873824
0.749831
-0.0112104
0.71309
-0.0133945
0.678644
-0.0156218
0.64606
-0.0175431
0.615147
-0.0192798
0.585538
-0.0208564
0.557523
-0.0223496
0.530909
-0.0238658
0.505594
-0.0253736
0.481483
-0.0268806
0.45849
-0.0284155
0.436511
-0.029985
0.415535
-0.0316259
0.395535
-0.0332891
0.376437
-0.0348228
0.358198
-0.0361629
0.340773
-0.0372138
0.324034
-0.0379428
0.308069
-0.0385788
0.292938
-0.0391361
0.278439
-0.0395128
0.26462
-0.0396596
0.251506
-0.0395982
0.238991
-0.0394753
0.227081
-0.0394176
0.215838
-0.0393292
0.20516
-0.0390375
0.194827
-0.0385565
0.184983
-0.0379188
0.175646
-0.0371505
0.166739
-0.036319
0.158305
-0.035352
0.150251
-0.034214
0.142561
-0.0329608
0.135224
-0.0316143
0.128224
-0.0301866
0.121558
-0.0286994
0.115207
-0.0270248
0.109172
-0.0246887
0.102289
-0.0214569
0.0938731
-0.0160023
0.0801543
-0.00740148
0.0537811
0.0108582
0.0117794
0.907635
0.00179704
0.982032
0.00193942
0.913943
-0.0024176
0.877259
-0.00417973
0.830208
-0.00669685
0.790675
-0.0090515
0.752186
-0.0116968
0.715735
-0.0144655
0.681413
-0.0171879
0.648782
-0.0196049
0.617564
-0.02201
0.587943
-0.0242545
0.559768
-0.0262665
0.53292
-0.0280874
0.507415
-0.0297903
0.483186
-0.0313704
0.46007
-0.032803
0.437943
-0.03406
0.416792
-0.0351165
0.396591
-0.0360376
0.377358
-0.0369087
0.359069
-0.0377718
0.341636
-0.0387525
0.325015
-0.0397974
0.309114
-0.0406779
0.293819
-0.0413892
0.27915
-0.0420133
0.265244
-0.0425905
0.252083
-0.0431139
0.239515
-0.0434216
0.227389
-0.0433634
0.21578
-0.0430359
0.204832
-0.0426251
0.194416
-0.0421361
0.184494
-0.0415408
0.17505
-0.0408041
0.166002
-0.0398546
0.157355
-0.0387774
0.149174
-0.0376165
0.1414
-0.0363287
0.133936
-0.0349056
0.126801
-0.0333617
0.120014
-0.0318899
0.113735
-0.0299258
0.107208
-0.0273727
0.0997354
-0.0232516
0.0897521
-0.0160356
0.0729382
-0.00543234
0.0431778
0.00542581
0.000976606
0.906658
-0.00201487
0.985024
0.000484799
0.911443
-0.00419944
0.881943
-0.00554001
0.831549
-0.008342
0.793477
-0.010469
0.754313
-0.0130483
0.718314
-0.0157011
0.684065
-0.0180011
0.651082
-0.0200238
0.619587
-0.0221524
0.590072
-0.0243129
0.561928
-0.0264304
0.535038
-0.0284732
0.509458
-0.0303704
0.485083
-0.0321931
0.461892
-0.0340849
0.439835
-0.036031
0.418738
-0.0380233
0.398583
-0.0399308
0.379266
-0.0416486
0.360787
-0.0431524
0.343139
-0.0443255
0.326188
-0.0452202
0.310009
-0.0460636
0.294662
-0.0467526
0.279839
-0.0472154
0.265707
-0.0474018
0.252269
-0.0473242
0.239437
-0.0471397
0.227204
-0.0470093
0.21565
-0.0468638
0.204687
-0.0465184
0.194071
-0.045958
0.183934
-0.0452127
0.174305
-0.0443233
0.165113
-0.0433937
0.156426
-0.0423523
0.148133
-0.0411416
0.140189
-0.0398074
0.132602
-0.0383793
0.125373
-0.0370013
0.118636
-0.0353586
0.112093
-0.0330578
0.104907
-0.0297875
0.0964651
-0.0244567
0.0844213
-0.0156018
0.0640832
-0.00345386
0.0310299
0.00197195
-0.00737981
0.914038
-0.00677528
0.984419
-0.0029572
0.907625
-0.00774386
0.88673
-0.00834867
0.832153
-0.0114852
0.796613
-0.0131421
0.755969
-0.0155004
0.720673
-0.0180241
0.686589
-0.0203971
0.653455
-0.022857
0.622047
-0.0250681
0.592283
-0.0271025
0.563963
-0.0292355
0.537171
-0.0314183
0.51164
-0.0334999
0.487165
-0.0353802
0.463773
-0.0370336
0.441488
-0.0385156
0.42022
-0.0398426
0.39991
-0.0411674
0.380591
-0.0424477
0.362067
-0.0436654
0.344357
-0.0449746
0.327497
-0.0461779
0.311212
-0.0471938
0.295678
-0.0480816
0.280727
-0.0488512
0.266477
-0.0495381
0.252956
-0.0501585
0.240058
-0.0505785
0.227624
-0.0506125
0.215684
-0.0502985
0.204373
-0.049859
0.193631
-0.0493442
0.183419
-0.0487401
0.173701
-0.0480215
0.164394
-0.0470843
0.155489
-0.0459921
0.14704
-0.0448065
0.139004
-0.0435152
0.131311
-0.0421819
0.124039
-0.0408127
0.117267
-0.0388421
0.110122
-0.0362607
0.102326
-0.0321981
0.0924024
-0.0253934
0.0776167
-0.014721
0.0534107
-0.00223391
0.0185429
-0.000261963
-0.0120266
0.926065
-0.0109909
0.983383
-0.00753408
0.904169
-0.0122085
0.891404
-0.0115558
0.831501
-0.0146527
0.79971
-0.0155062
0.756823
-0.0172127
0.722379
-0.0186323
0.688008
-0.0204169
0.65524
-0.0227333
0.624363
-0.0247634
0.594313
-0.026636
0.565835
-0.028552
0.539087
-0.0304806
0.513569
-0.0325786
0.489263
-0.0348422
0.466036
-0.03718
0.443826
-0.0395537
0.422594
-0.0418766
0.402233
-0.0440052
0.382719
-0.0460241
0.364086
-0.0478636
0.346197
-0.049402
0.329036
-0.0507929
0.312603
-0.0519543
0.296839
-0.052923
0.281696
-0.0536395
0.267193
-0.0540579
0.253374
-0.0541486
0.240148
-0.05404
0.227516
-0.0539555
0.215599
-0.0539097
0.204327
-0.0536928
0.193414
-0.0532398
0.182966
-0.0525745
0.173035
-0.0517229
0.163543
-0.0508267
0.154592
-0.0498492
0.146063
-0.0487274
0.137882
-0.0474999
0.130083
-0.0463706
0.12291
-0.0448257
0.115722
-0.0427377
0.108034
-0.0397188
0.0993071
-0.0346549
0.0873385
-0.0255743
0.0685361
-0.011542
0.0393785
-0.00138551
0.00838637
-0.00164748
-0.0141197
0.940184
-0.0129103
0.982174
-0.0109807
0.902239
-0.0141727
0.894596
-0.0128996
0.830228
-0.0166071
0.803418
-0.0170151
0.757231
-0.018951
0.724315
-0.0197967
0.688854
-0.0213591
0.656802
-0.0235718
0.626576
-0.0258133
0.596555
-0.0281008
0.568123
-0.0303128
0.541299
-0.0323957
0.515652
-0.0343337
0.491201
-0.0362867
0.467989
-0.0382152
0.445755
-0.0400837
0.424462
-0.0419912
0.404141
-0.0439192
0.384647
-0.0456943
0.365861
-0.0473932
0.347896
-0.0491049
0.330747
-0.0506925
0.31419
-0.0521372
0.298284
-0.053469
0.283027
-0.0545742
0.268298
-0.0555481
0.254348
-0.0564534
0.241054
-0.0571907
0.228253
-0.0575176
0.215926
-0.0573834
0.204193
-0.0570602
0.193091
-0.0566609
0.182567
-0.056178
0.172553
-0.0556235
0.162988
-0.0548711
0.15384
-0.0539412
0.145133
-0.0529018
0.136843
-0.0519485
0.12913
-0.050773
0.121735
-0.0490436
0.113993
-0.0466449
0.105635
-0.0426697
0.0953318
-0.0355063
0.0801752
-0.0235206
0.0565503
-0.00723931
0.0230972
-0.000860014
0.00200708
-0.00250749
-0.00990944
0.950094
-0.00742901
0.979694
-0.0101932
0.905003
-0.0132801
0.897683
-0.0119501
0.828898
-0.0159092
0.807377
-0.0163121
0.757634
-0.0186947
0.726698
-0.0188961
0.689056
-0.0201702
0.658076
-0.0215528
0.627959
-0.0233114
0.598313
-0.0255032
0.570315
-0.0275985
0.543394
-0.0297711
0.517824
-0.0321879
0.493618
-0.0346465
0.470448
-0.0372662
0.448374
-0.0400325
0.427229
-0.0427067
0.406815
-0.0452935
0.387234
-0.0479433
0.368511
-0.0504201
0.350372
-0.0526023
0.33293
-0.054595
0.316183
-0.0563236
0.300013
-0.0578378
0.284542
-0.0591094
0.26957
-0.0600371
0.255276
-0.0605224
0.241539
-0.0606617
0.228392
-0.060765
0.216029
-0.0609664
0.204394
-0.061018
0.193143
-0.0608079
0.182357
-0.0603763
0.172121
-0.0597189
0.162331
-0.0589934
0.153114
-0.0582166
0.144356
-0.0574438
0.13607
-0.0566097
0.128296
-0.0552378
0.120363
-0.0533778
0.112133
-0.0503545
0.102612
-0.0446595
0.0896368
-0.0340436
0.0695593
-0.0171669
0.0396737
-0.00355384
0.00948409
-6.66083e-05
-0.00148015
-0.0025741
-0.00629443
0.956388
-0.00377947
0.977179
-0.00877385
0.909997
-0.010194
0.899103
-0.00956279
0.828266
-0.0136142
0.811428
-0.0141776
0.758197
-0.0175185
0.730039
-0.0183293
0.689866
-0.0199526
0.6597
-0.0208059
0.628812
-0.0226977
0.600205
-0.0251341
0.572751
-0.0274123
0.545673
-0.029682
0.520094
-0.0320139
0.49595
-0.0343452
0.472779
-0.0365631
0.450592
-0.038852
0.429518
-0.0413973
0.40936
-0.0439488
0.389786
-0.0462913
0.370853
-0.0487076
0.352789
-0.0511537
0.335376
-0.0535224
0.318552
-0.0557739
0.302264
-0.0577751
0.286543
-0.0594831
0.271278
-0.0609936
0.256786
-0.0624159
0.242961
-0.0637019
0.229678
-0.064521
0.216849
-0.064719
0.204592
-0.064623
0.193047
-0.0644323
0.182166
-0.0641501
0.171839
-0.0638496
0.16203
-0.0634115
0.152676
-0.0628326
0.143777
-0.0622347
0.135472
-0.0612087
0.12727
-0.0597332
0.118887
-0.0573946
0.109794
-0.0528652
0.0980827
-0.04381
0.0805816
-0.028542
0.0542912
-0.00996787
0.0210996
-0.00198531
0.00150153
-1.97538e-05
-0.0034457
-0.00259385
-0.00357514
0.959963
-0.000725716
0.974329
-0.00636192
0.915634
-0.00615715
0.898898
-0.00662805
0.828737
-0.0094977
0.814298
-0.00984444
0.758544
-0.0136208
0.733815
-0.0147585
0.691004
-0.0171481
0.662089
-0.0177072
0.629371
-0.0189687
0.601467
-0.0208595
0.574642
-0.0230341
0.547847
-0.0254977
0.522557
-0.0282571
0.498709
-0.0312311
0.475753
-0.0344302
0.453791
-0.0376767
0.432764
-0.0407974
0.412481
-0.0440971
0.393085
-0.0475767
0.374333
-0.0508051
0.356017
-0.0538207
0.338391
-0.0566371
0.321368
-0.059255
0.304882
-0.0616533
0.288941
-0.0638228
0.273448
-0.0655846
0.258548
-0.0667679
0.244145
-0.067403
0.230313
-0.0678716
0.217317
-0.0684283
0.205149
-0.0688129
0.193431
-0.0688881
0.182241
-0.0687443
0.171695
-0.0683691
0.161655
-0.0679317
0.152239
-0.0675058
0.143351
-0.0668461
0.134812
-0.0657736
0.126197
-0.063977
0.117091
-0.0603395
0.106157
-0.0528187
0.0905619
-0.0393306
0.0670935
-0.0187117
0.0336724
-0.00459513
0.00698301
-0.000583645
-0.00250996
0.000230746
-0.00426009
-0.00236311
-0.001089
0.961052
0.000463656
0.972777
-0.0040705
0.920168
-0.00223866
0.897067
-0.00445731
0.830956
-0.00623903
0.81608
-0.0065571
0.758862
-0.0100065
0.737264
-0.0115315
0.692529
-0.0145917
0.66515
-0.0156549
0.630434
-0.017812
0.603624
-0.0195065
0.576337
-0.0217783
0.550119
-0.0242376
0.525017
-0.0266158
0.501087
-0.0292241
0.478362
-0.0319805
0.456548
-0.0349516
0.435735
-0.0382112
0.41574
-0.0413048
0.396179
-0.0444261
0.377454
-0.0478412
0.359432
-0.0513018
0.341852
-0.0547285
0.324795
-0.0579736
0.308127
-0.0609344
0.291902
-0.0636393
0.276152
-0.066042
0.260951
-0.06827
0.246373
-0.0703498
0.232393
-0.0718962
0.218864
-0.0726206
0.205873
-0.0728466
0.193657
-0.0728618
0.182256
-0.0727221
0.171555
-0.0726165
0.16155
-0.0724893
0.152112
-0.072181
0.143043
-0.071533
0.134164
-0.0702244
0.124889
-0.0673937
0.11426
-0.0612065
0.0999695
-0.0490553
0.0784108
-0.0286114
0.0466496
-0.00927984
0.0143407
-0.00192985
-0.000366973
6.33768e-05
-0.00450319
0.000274819
-0.00447154
-0.00208829
0.000544904
0.960507
0.00151958
0.971802
-0.0018968
0.923584
0.000873839
0.894296
-0.00176101
0.833591
-0.00195884
0.816277
-0.00289661
0.7598
-0.00538576
0.739754
-0.00685539
0.693999
-0.0101155
0.66841
-0.011236
0.631555
-0.0128754
0.605263
-0.0141983
0.577659
-0.0165695
0.55249
-0.0193196
0.527767
-0.022075
0.503843
-0.0252322
0.481519
-0.0288704
0.460186
-0.0325232
0.439388
-0.0363141
0.419531
-0.0406066
0.400471
-0.0448467
0.381694
-0.0488967
0.363482
-0.052912
0.345867
-0.0568522
0.328735
-0.0606714
0.311946
-0.0642583
0.295489
-0.0676105
0.279505
-0.0705486
0.263889
-0.0728786
0.248703
-0.0743886
0.233903
-0.0754671
0.219942
-0.076507
0.206913
-0.0772724
0.194423
-0.0776147
0.182599
-0.077684
0.171625
-0.0774991
0.161365
-0.077216
0.151828
-0.0767684
0.142596
-0.0758061
0.133202
-0.0736805
0.122763
-0.0686583
0.109238
-0.0581026
0.0894138
-0.0388884
0.0591966
-0.0161128
0.023874
-0.00464774
0.00287565
-0.00106157
-0.00395315
-4.14743e-05
-0.00552328
0.000133503
-0.00464651
-0.00195478
0.00151817
0.958989
0.00173749
0.971583
-0.000826268
0.926148
0.00212675
0.891343
-0.00072766
0.836445
0.000419028
0.815131
-0.000731544
0.76095
-0.00190083
0.740923
-0.00357049
0.695668
-0.00676447
0.671604
-0.00895357
0.633744
-0.0117552
0.608065
-0.0127535
0.578658
-0.0148381
0.554575
-0.0173651
0.530294
-0.0198989
0.506376
-0.0224641
0.484084
-0.025414
0.463136
-0.0288169
0.442791
-0.0323888
0.423103
-0.0360854
0.404168
-0.0402473
0.385856
-0.0447322
0.367967
-0.0493275
0.350462
-0.0539077
0.333315
-0.0584432
0.316482
-0.0627664
0.299812
-0.0667618
0.2835
-0.0704153
0.267543
-0.073798
0.252085
-0.0769982
0.237103
-0.0796226
0.222567
-0.0811996
0.20849
-0.0819275
0.19515
-0.0821676
0.182839
-0.082028
0.171485
-0.0818695
0.161206
-0.0815939
0.151553
-0.0808735
0.141875
-0.0792373
0.131566
-0.0752151
0.118741
-0.0664777
0.1005
-0.0491617
0.0720978
-0.0241281
0.034163
-0.00801483
0.0077608
-0.00283732
-0.00230185
-0.00129921
-0.00549126
-0.000693312
-0.00612918
-0.000265492
-0.00507433
-0.00222027
0.00248218
0.956507
0.00300087
0.971064
0.00166162
0.927487
0.00402778
0.888977
0.00163457
0.838838
0.00276671
0.813999
0.00178499
0.761932
0.00102531
0.741682
-5.2242e-05
0.696746
-0.00194618
0.673498
-0.00422385
0.636022
-0.00646084
0.610302
-0.00786649
0.580063
-0.00971646
0.556425
-0.0119944
0.532572
-0.0150538
0.509436
-0.0184426
0.487473
-0.0219588
0.466652
-0.0257807
0.446613
-0.0300793
0.427402
-0.0348095
0.408898
-0.0396453
0.390692
-0.0445746
0.372897
-0.0496954
0.355583
-0.0549334
0.338553
-0.0601201
0.321669
-0.0652327
0.304925
-0.0701009
0.288368
-0.0745636
0.272005
-0.0784561
0.255978
-0.0813926
0.24004
-0.0835059
0.22468
-0.0853613
0.210346
-0.0866629
0.196452
-0.0872871
0.183463
-0.0874286
0.171626
-0.087129
0.160907
-0.086209
0.150633
-0.084545
0.140211
-0.0812431
0.128264
-0.0740015
0.111499
-0.0582654
0.0847643
-0.0326997
0.0465322
-0.0120267
0.01349
-0.00420777
-5.81603e-05
-0.00184035
-0.00466927
-0.00103897
-0.00629264
-0.000695207
-0.00647295
-0.000373488
-0.00539605
-0.00259376
0.0015077
0.954999
0.0021259
0.970446
0.0010032
0.92861
0.00327312
0.886707
0.00142586
0.840686
0.00310647
0.812318
0.00178984
0.763249
0.00192806
0.741544
0.00129462
0.697379
-0.000471818
0.675264
-0.00275459
0.638304
-0.00571195
0.613259
-0.00731138
0.581663
-0.00913015
0.558243
-0.0107165
0.534158
-0.0130277
0.511747
-0.0154534
0.489899
-0.0182881
0.469487
-0.0217362
0.450061
-0.0254139
0.43108
-0.0294689
0.412953
-0.0342713
0.395494
-0.0396024
0.378228
-0.0451974
0.361178
-0.0510123
0.344368
-0.0569807
0.327637
-0.0628845
0.310828
-0.0685475
0.294031
-0.0738828
0.277341
-0.0788779
0.260973
-0.0835011
0.244663
-0.0877487
0.228928
-0.090715
0.213312
-0.092458
0.198195
-0.0932052
0.18421
-0.0929738
0.171395
-0.0920652
0.159998
-0.090334
0.148902
-0.087223
0.1371
-0.0807382
0.121779
-0.066237
0.0969982
-0.0421846
0.0607119
-0.0168547
0.0212022
-0.00469662
0.00133191
-6.75162e-05
-0.00468726
0.00150246
-0.00623925
0.00153731
-0.00632749
0.000831424
-0.00576706
0.000141264
-0.00470589
-0.0024525
0.00202085
0.952978
0.00248235
0.969984
0.00203091
0.929061
0.00356118
0.885177
0.00234273
0.841904
0.00397817
0.810683
0.00287548
0.764352
0.00350203
0.740918
0.00318222
0.697699
0.00248332
0.675963
0.00130331
0.639484
-0.000933982
0.615496
-0.00313865
0.583868
-0.00485999
0.559965
-0.00628392
0.535582
-0.00904078
0.514504
-0.0122602
0.493118
-0.0152964
0.472523
-0.0188869
0.453651
-0.0232919
0.435485
-0.0280174
0.417679
-0.0329842
0.400461
-0.0384288
0.383672
-0.0444226
0.367172
-0.0507849
0.350731
-0.0573816
0.334234
-0.064136
0.317583
-0.0708505
0.300746
-0.0773243
0.283814
-0.0831832
0.266832
-0.0881927
0.249673
-0.0919657
0.232701
-0.0951718
0.216518
-0.0975581
0.200581
-0.0988723
0.185524
-0.0989391
0.171462
-0.0976788
0.158738
-0.0943557
0.145579
-0.0872754
0.13002
-0.0731176
0.107621
-0.0513415
0.0752222
-0.021755
0.0311254
-0.00209822
0.00154545
0.00596925
-0.00673557
0.00868751
-0.00740552
0.00875179
-0.00630353
0.00711513
-0.00469082
0.00443492
-0.00308685
0.00161707
-0.00188805
-0.000835424
0.00123985
0.951739
0.00236503
0.968859
0.00128562
0.930141
0.00259737
0.883865
0.00119364
0.843308
0.00286492
0.809011
0.0015866
0.76563
0.00239529
0.740109
0.00183578
0.698259
0.00175636
0.676042
0.000729787
0.640511
-0.00103781
0.617264
-0.00315811
0.585988
-0.00519514
0.562002
-0.00598761
0.536375
-0.00707625
0.515592
-0.00890837
0.49495
-0.0115261
0.47514
-0.0143854
0.456511
-0.0177243
0.438823
-0.0217902
0.421745
-0.0266439
0.405315
-0.0321908
0.389219
-0.0383021
0.373283
-0.0450378
0.357466
-0.0522672
0.341463
-0.0597402
0.325056
-0.0672749
0.30828
-0.0747124
0.291252
-0.0817716
0.273891
-0.0884981
0.256399
-0.0947725
0.238975
-0.0997475
0.221493
-0.103376
0.20421
-0.105453
0.187601
-0.105228
0.171237
-0.102389
0.155899
-0.0952756
0.138465
-0.0821719
0.116916
-0.0603353
0.0857845
-0.0275314
0.0424182
0.00113494
0.00245905
0.0128694
-0.010189
0.0163965
-0.0102627
0.0164318
-0.00744083
0.0145863
-0.00445804
0.011311
-0.00141543
0.00720475
0.00101936
0.00288907
0.00242763
0.00205365
0.000271713
0.951467
0.00163888
0.967492
0.00102107
0.930759
0.00208118
0.882805
0.000695833
0.844693
0.00259829
0.807109
0.00141314
0.766815
0.00272459
0.738798
0.00230869
0.698675
0.00271852
0.675632
0.00275061
0.640479
0.00190384
0.618111
0.000346189
0.587546
-0.0017652
0.564113
-0.00337718
0.537987
-0.00520932
0.517425
-0.00720996
0.496951
-0.0094829
0.477413
-0.0123815
0.459409
-0.0160364
0.442478
-0.0203044
0.426013
-0.0250277
0.410038
-0.0304641
0.394656
-0.036699
0.379518
-0.0436455
0.364413
-0.0512468
0.349064
-0.0594523
0.333261
-0.0680455
0.316874
-0.0766807
0.299887
-0.0850852
0.282296
-0.0928392
0.264153
-0.099192
0.245328
-0.104509
0.22681
-0.108496
0.208197
-0.111
0.190106
-0.111642
0.171879
-0.107321
0.151578
-0.096087
0.127231
-0.073229
0.0940579
-0.0362865
0.048842
-0.00200167
0.00813338
0.0140504
-0.013593
0.0186021
-0.0147408
0.019492
-0.0111525
0.0183323
-0.00628113
0.015575
-0.0017008
0.0118994
0.0022602
0.00752512
0.00539363
0.00300735
0.0069454
0.00506101
-0.000860866
0.952328
0.00124781
0.965383
-0.000618606
0.932625
0.00018151
0.882005
-0.00129975
0.846174
-0.000121037
0.80593
-0.0014833
0.768177
-3.69427e-05
0.737351
-0.000435735
0.699073
0.000382153
0.674815
-1.0999e-05
0.640872
-0.000182505
0.618282
-0.0014613
0.588824
-0.00282026
0.565472
-0.00349914
0.538665
-0.00386067
0.517786
-0.00484247
0.497933
-0.00676874
0.47934
-0.00856607
0.461207
-0.0109337
0.444846
-0.0142509
0.42933
-0.0185188
0.414306
-0.0236661
0.399803
-0.0296243
0.385476
-0.0365534
0.371342
-0.0444887
0.357
-0.0531832
0.341956
-0.062363
0.326053
-0.0718461
0.30937
-0.0814599
0.291909
-0.0909945
0.273688
-0.100108
0.254441
-0.107967
0.234669
-0.114258
0.214488
-0.118151
0.193998
-0.117267
0.170995
-0.108988
0.1433
-0.0871777
0.10542
-0.0479175
0.0547977
-0.0127312
0.0136558
0.00382633
-0.0084242
0.00685052
-0.0166172
0.00819665
-0.0160869
0.00895468
-0.0119105
0.00860208
-0.00592853
0.00708723
-0.000185955
0.00501591
0.00433152
0.00271366
0.00769589
0.0008078
0.00885126
0.00586881
-0.00157523
0.953903
-0.00049684
0.964305
-0.000548783
0.932677
-0.000389249
0.881845
-0.00118045
0.846966
-0.000402034
0.805152
-0.00165808
0.769433
-0.000546101
0.736239
-0.00158893
0.700116
-0.00024627
0.673472
0.00039977
0.640226
0.000954736
0.617727
0.000604233
0.589175
-0.00116388
0.56724
-0.00319097
0.540693
-0.00411318
0.518708
-0.00461147
0.498431
-0.0058968
0.480625
-0.00793946
0.463249
-0.0103086
0.447215
-0.0133555
0.432377
-0.0172637
0.418214
-0.022001
0.40454
-0.027653
0.391128
-0.0343542
0.378043
-0.0423862
0.365032
-0.0516004
0.35117
-0.0616557
0.336109
-0.0723944
0.320109
-0.0837044
0.303219
-0.0948008
0.284784