/*--------------------------------*- C++ -*----------------------------------*\
| =========                 |                                                 |
| \\      /  F ield         | OpenFOAM: The Open Source CFD Toolbox           |
|  \\    /   O peration     | Version:  v1912                                 |
|   \\  /    A nd           | Website:  www.openfoam.com                      |
|    \\/     M anipulation  |                                                 |
\*---------------------------------------------------------------------------*/
FoamFile
{
    version     2.0;
    format      ascii;
    class       volVectorField;
    location    "0.06";
    object      U;
}
// * * * * * * * * * * * * * * * * * * * * * * * * * * * * * * * * * * * * * //

dimensions      [0 1 -1 0 0 0 0];


internalField   nonuniform List<vector> 
6600
(
(39.8391 -0.0457218 0)
(40.0871 -0.0593458 1.33024e-20)
(40.1484 0.0211474 9.3378e-19)
(40.1852 0.10536 0)
(40.2148 0.194124 1.13911e-18)
(40.2506 0.317347 3.85337e-20)
(40.2909 0.443891 -4.27674e-20)
(40.3375 0.565963 -4.75248e-20)
(40.3833 0.69048 9.74444e-19)
(40.4258 0.826328 -1.17634e-19)
(40.4646 0.978233 0)
(40.4898 1.15108 -1.23273e-18)
(40.5081 1.33462 0)
(40.5206 1.52588 -1.36841e-18)
(40.5221 1.72642 -1.90994e-18)
(40.5076 1.94474 -1.03217e-18)
(40.4891 2.17894 0)
(40.4777 2.43122 0)
(40.4575 2.7 1.75955e-18)
(40.4107 2.99422 -1.6195e-18)
(40.3502 3.31131 -2.43149e-19)
(40.2942 3.65279 -9.16067e-19)
(40.2232 4.0339 -1.71534e-18)
(40.1333 4.46264 3.86143e-19)
(40.0188 4.93229 1.42481e-18)
(39.8976 5.41555 0)
(39.7937 5.91381 3.54058e-18)
(39.6729 6.44012 0)
(39.5348 7.00254 -1.78599e-18)
(39.3413 7.61677 -1.16262e-18)
(39.1051 8.26854 -3.49507e-19)
(38.949 8.95241 -1.45794e-18)
(38.8275 9.71793 -6.23142e-19)
(38.6347 10.5584 1.22993e-18)
(38.4031 11.4349 3.76244e-19)
(38.2164 12.3933 1.41721e-18)
(38.0215 13.442 2.86104e-18)
(37.8296 14.5498 2.66613e-18)
(37.6668 15.7492 -1.93331e-18)
(37.5317 17.0255 2.01483e-18)
(37.412 18.3848 1.02396e-18)
(37.3001 19.8486 0)
(37.2118 21.4005 1.6452e-20)
(37.1457 23.0592 7.97439e-20)
(37.1158 24.7942 0)
(37.1814 26.7187 -1.36968e-18)
(37.2254 28.579 -3.39717e-18)
(37.6602 30.8958 0)
(36.1276 31.9677 0)
(26.433 25.2818 -2.28726e-18)
(39.729 -0.0477253 7.84408e-19)
(40.1556 -0.0779895 -8.13372e-19)
(40.1979 0.0295846 0)
(40.2399 0.136417 -1.52845e-20)
(40.2785 0.264948 1.06446e-18)
(40.3217 0.373945 3.68881e-20)
(40.3792 0.488259 -2.39831e-22)
(40.4286 0.620865 -4.52454e-20)
(40.4688 0.769428 0)
(40.5227 0.92193 -1.72608e-18)
(40.5639 1.09739 -6.2235e-20)
(40.5906 1.29187 1.07519e-18)
(40.6151 1.49163 1.12791e-18)
(40.6447 1.69959 8.03341e-19)
(40.675 1.92148 -1.97456e-21)
(40.6933 2.1647 1.13361e-19)
(40.6875 2.4355 -9.89993e-19)
(40.6657 2.72737 0)
(40.6506 3.03219 0)
(40.6276 3.34855 1.64752e-18)
(40.5811 3.68604 2.26357e-19)
(40.516 4.03583 -1.20817e-18)
(40.4375 4.38947 -1.09496e-18)
(40.355 4.75466 -1.25342e-18)
(40.2681 5.14091 -1.03894e-18)
(40.1794 5.58966 -4.39579e-19)
(40.0724 6.1075 -5.86624e-19)
(39.9519 6.66829 -5.74475e-19)
(39.8254 7.26898 1.77154e-18)
(39.7198 7.91721 3.06987e-19)
(39.6523 8.64782 -2.25344e-18)
(39.5457 9.41532 2.05822e-18)
(39.379 10.2033 1.36908e-18)
(39.2323 11.0349 -1.80929e-18)
(39.1303 11.9402 4.01933e-19)
(38.9976 12.9022 -1.44948e-18)
(38.8675 13.9127 9.1548e-19)
(38.7659 15.0079 -9.89446e-19)
(38.684 16.179 -4.43057e-19)
(38.6459 17.4466 -4.67904e-19)
(38.6221 18.7716 0)
(38.6285 20.1723 0)
(38.6971 21.6594 4.72047e-19)
(38.8339 23.2548 -6.05071e-19)
(39.0265 24.916 -2.41635e-18)
(39.3138 26.7371 1.41436e-18)
(39.6023 28.5349 5.25482e-18)
(40.1371 30.6365 0)
(38.5781 31.2591 -5.73089e-18)
(27.5681 24.1511 2.53702e-18)
(39.666 -0.0354597 -4.84291e-20)
(40.2552 -0.0717441 8.28843e-19)
(40.283 0.0536009 8.35373e-19)
(40.3256 0.170382 -3.16122e-22)
(40.3711 0.289445 -1.16544e-19)
(40.4149 0.417947 3.51676e-20)
(40.4806 0.542186 0)
(40.5349 0.690373 0)
(40.5889 0.845328 0)
(40.643 1.01248 9.15863e-19)
(40.6906 1.19706 -5.77556e-20)
(40.7331 1.38448 -1.08238e-18)
(40.7639 1.58515 -5.94406e-19)
(40.784 1.79909 1.21908e-18)
(40.797 2.02616 6.92823e-19)
(40.808 2.26753 -1.05198e-19)
(40.8229 2.52953 2.00026e-18)
(40.8326 2.80989 -1.00209e-18)
(40.8355 3.11483 -1.13488e-18)
(40.8317 3.43503 0)
(40.8169 3.78344 -7.29549e-19)
(40.7953 4.17287 9.67292e-19)
(40.7676 4.60771 1.1081e-18)
(40.7214 5.08931 1.26924e-18)
(40.6433 5.58825 1.11689e-18)
(40.5689 6.0881 -1.12236e-19)
(40.5131 6.60718 -2.12498e-19)
(40.4533 7.16652 -6.06574e-19)
(40.3868 7.76976 -2.6898e-19)
(40.2481 8.40213 1.05621e-18)
(40.0945 9.06833 3.29154e-19)
(40.0447 9.79043 0)
(40.0392 10.5944 -1.48185e-18)
(39.9512 11.4563 3.6556e-19)
(39.8458 12.3427 7.64655e-19)
(39.806 13.3033 8.52584e-19)
(39.7655 14.3333 -6.81639e-19)
(39.7455 15.4036 -2.82846e-19)
(39.7695 16.5551 4.62807e-19)
(39.8418 17.7729 0)
(39.9654 19.0602 8.31311e-19)
(40.1264 20.4201 0)
(40.3401 21.8425 0)
(40.6029 23.34 2.50295e-18)
(40.9348 24.8918 1.51093e-18)
(41.382 26.5956 -3.00703e-18)
(41.8765 28.3039 -3.15446e-18)
(42.5166 30.1089 0)
(40.8227 30.2956 -3.53654e-18)
(28.3058 22.6524 3.84505e-18)
(39.5876 -0.0172441 -7.41289e-19)
(40.3946 -0.074552 5.70642e-21)
(40.4088 0.0916889 -8.5752e-19)
(40.4421 0.199503 -8.16751e-19)
(40.4812 0.313769 -9.72971e-19)
(40.5304 0.458302 -4.75328e-19)
(40.5819 0.62069 -3.56477e-20)
(40.639 0.776329 0)
(40.7006 0.941894 6.4542e-19)
(40.7545 1.13084 7.58751e-19)
(40.8011 1.32684 -5.25429e-20)
(40.8532 1.52717 -5.84487e-20)
(40.91 1.74038 -4.87311e-19)
(40.9592 1.96936 -1.51764e-19)
(40.9991 2.21857 -1.03258e-20)
(41.0245 2.49003 -9.29294e-20)
(41.0321 2.78028 -2.53646e-20)
(41.0429 3.0831 1.12922e-18)
(41.0535 3.4037 1.49578e-18)
(41.0602 3.74076 0)
(41.0461 4.09935 1.28109e-19)
(41.0047 4.46586 0)
(40.9701 4.84445 0)
(40.9459 5.23711 -2.43516e-19)
(40.9393 5.69223 7.43144e-19)
(40.8967 6.19671 8.38098e-19)
(40.8412 6.74361 -1.68727e-19)
(40.7892 7.32858 8.60346e-19)
(40.7363 7.95485 0)
(40.7357 8.63412 0)
(40.742 9.3855 3.4106e-19)
(40.7082 10.17 0)
(40.65 10.9685 4.00676e-19)
(40.6404 11.8089 4.04624e-19)
(40.6725 12.7178 -7.54321e-19)
(40.6869 13.6651 -5.07723e-19)
(40.7273 14.6557 -2.3315e-19)
(40.8044 15.7117 9.85668e-20)
(40.9211 16.8165 3.75825e-19)
(41.1014 18.0047 4.38976e-19)
(41.3203 19.2315 -2.4107e-18)
(41.5898 20.5051 0)
(41.9412 21.8336 0)
(42.3875 23.2323 -1.57678e-18)
(42.9228 24.6649 -2.90398e-18)
(43.5604 26.2153 -7.67646e-19)
(44.239 27.8394 -5.05715e-18)
(44.7751 29.322 5.58593e-18)
(42.6806 29.0184 7.84322e-18)
(28.6066 20.851 0)
(39.4871 0.0249645 -2.45557e-21)
(40.5264 -0.0632677 6.34136e-19)
(40.5257 0.153222 6.93139e-19)
(40.5905 0.241215 8.46309e-19)
(40.6286 0.379308 0)
(40.674 0.519288 5.80968e-20)
(40.733 0.660867 0)
(40.7893 0.826065 -3.44818e-20)
(40.8581 1.00129 -1.17344e-18)
(40.929 1.18944 -7.57002e-19)
(40.9786 1.39187 4.64055e-20)
(41.0273 1.60725 5.08981e-20)
(41.0728 1.82682 -5.66442e-20)
(41.1101 2.05567 -5.44767e-19)
(41.1437 2.29503 -1.18608e-18)
(41.1892 2.55009 7.82277e-20)
(41.2303 2.8236 -1.39058e-18)
(41.263 3.12081 9.80408e-20)
(41.2881 3.44315 -4.85923e-19)
(41.3153 3.78333 -2.4489e-19)
(41.3499 4.16366 7.51632e-19)
(41.376 4.59074 0)
(41.391 5.06665 0)
(41.382 5.5767 -3.02802e-19)
(41.3582 6.10068 -4.77671e-19)
(41.3555 6.63731 4.47521e-19)
(41.3651 7.19355 -1.19447e-19)
(41.3825 7.7822 0)
(41.3978 8.40681 1.18392e-19)
(41.3209 9.04404 -1.31945e-19)
(41.2604 9.71222 -3.46646e-19)
(41.3148 10.4429 -1.16057e-19)
(41.4258 11.2558 8.37527e-20)
(41.4656 12.1167 3.31428e-20)
(41.5018 12.9839 -3.68799e-20)
(41.6155 13.9192 0)
(41.7427 14.9046 1.93181e-19)
(41.9081 15.919 1.56362e-18)
(42.1283 16.9945 -8.12605e-19)
(42.4114 18.1027 -1.06994e-18)
(42.7668 19.2609 1.59697e-18)
(43.1783 20.4659 0)
(43.6599 21.7024 0)
(44.1977 22.9697 -2.76043e-18)
(44.815 24.2502 6.04789e-18)
(45.5426 25.6464 1.62617e-18)
(46.3141 27.1327 3.06684e-18)
(46.7903 28.2783 -6.68825e-18)
(44.1733 27.5147 5.58985e-19)
(28.3709 18.7531 -1.05702e-17)
(39.4527 0.0688901 5.57288e-19)
(40.6193 -0.0201122 -7.35996e-20)
(40.6292 0.239942 -7.06803e-19)
(40.7251 0.295073 3.22191e-19)
(40.7627 0.445496 0)
(40.8352 0.583805 4.49242e-19)
(40.8936 0.737524 -1.38914e-20)
(40.9556 0.919259 -4.31882e-19)
(41.0224 1.10884 5.65748e-19)
(41.0877 1.30691 0)
(41.1496 1.51947 3.85247e-20)
(41.2108 1.73652 2.57142e-19)
(41.2741 1.96719 -3.73574e-19)
(41.3378 2.21372 5.17404e-20)
(41.4004 2.48288 5.64807e-19)
(41.4511 2.76687 -6.2523e-20)
(41.5037 3.06688 4.65695e-19)
(41.549 3.38206 -7.53771e-20)
(41.5808 3.71968 8.11424e-20)
(41.6048 4.07321 1.91619e-19)
(41.6187 4.43592 2.51033e-19)
(41.6256 4.81422 1.81974e-21)
(41.6421 5.21092 1.12472e-19)
(41.6988 5.64609 4.0429e-19)
(41.7417 6.1242 0)
(41.7583 6.66064 -3.43858e-19)
(41.7688 7.24192 5.23147e-20)
(41.7937 7.8564 -1.49485e-20)
(41.8286 8.50367 -9.32822e-20)
(41.9472 9.20583 3.16091e-20)
(42.0417 9.96283 1.59373e-19)
(42.0961 10.7361 4.14908e-20)
(42.1492 11.5091 0)
(42.2722 12.3256 0)
(42.4435 13.2088 0)
(42.607 14.107 0)
(42.8121 15.0385 1.38527e-18)
(43.0661 16.0143 -2.63467e-18)
(43.3746 17.0138 0)
(43.7554 18.0756 4.25962e-20)
(44.1801 19.1454 -2.93953e-19)
(44.6614 20.2336 -4.03461e-18)
(45.2263 21.3445 2.22462e-18)
(45.8947 22.4849 0)
(46.664 23.6243 2.2161e-18)
(47.5159 24.8445 -8.05019e-18)
(48.3648 26.1972 5.74664e-18)
(48.5214 26.993 4.27108e-18)
(45.0548 25.6878 1.57742e-17)
(27.5026 16.3745 -1.18116e-17)
(39.4807 0.08699 -5.49915e-19)
(40.7264 0.0329111 -1.05369e-18)
(40.7542 0.298813 8.71528e-21)
(40.8377 0.334143 -3.23798e-19)
(40.9026 0.517384 2.74594e-19)
(40.9778 0.647629 -1.03682e-20)
(41.0617 0.819276 3.30449e-19)
(41.1466 1.00288 4.33612e-19)
(41.2223 1.18738 3.74218e-19)
(41.295 1.39042 -1.4292e-20)
(41.3646 1.58855 -2.04209e-19)
(41.4207 1.79405 -8.51993e-20)
(41.4679 2.01417 3.2887e-19)
(41.5313 2.24428 0)
(41.6043 2.48692 0)
(41.6808 2.7532 2.11091e-20)
(41.7559 3.04665 3.37271e-19)
(41.8276 3.36552 0)
(41.8952 3.71183 2.42183e-20)
(41.9671 4.0897 -3.11363e-19)
(42.0529 4.50312 -2.77093e-19)
(42.1364 4.95961 1.27398e-20)
(42.1925 5.46223 0)
(42.2293 5.98879 -1.61139e-19)
(42.2787 6.53078 -9.79683e-21)
(42.3491 7.07426 1.09285e-20)
(42.4276 7.64283 0)
(42.5177 8.24296 0)
(42.6189 8.87951 -1.28823e-19)
(42.621 9.51817 2.36282e-19)
(42.6623 10.178 -3.38225e-19)
(42.8177 10.8941 1.9689e-19)
(43.0441 11.6804 3.67197e-19)
(43.2095 12.4964 -9.2237e-19)
(43.378 13.3073 1.70056e-18)
(43.6351 14.1795 6.39054e-19)
(43.9126 15.0744 -9.70442e-19)
(44.2366 15.9831 1.32872e-18)
(44.6217 16.9364 -2.29349e-18)
(45.0718 17.8889 5.73362e-20)
(45.5964 18.8667 -3.51806e-19)
(46.1839 19.863 2.07895e-18)
(46.8465 20.8641 3.16311e-18)
(47.556 21.859 -3.51383e-18)
(48.3313 22.8344 2.22869e-18)
(49.1911 23.9017 0)
(49.9661 25.0489 3.46101e-18)
(49.8942 25.4825 5.213e-18)
(45.4078 23.6832 -1.0884e-17)
(25.8719 13.7583 -3.36861e-18)
(39.5629 0.0828228 3.90946e-19)
(40.8474 0.0194683 4.86098e-19)
(40.9508 0.234539 3.84617e-21)
(41.0168 0.325402 -2.07964e-19)
(41.0801 0.55831 -5.03904e-19)
(41.1343 0.741671 2.3159e-19)
(41.2245 0.92468 -5.58507e-19)
(41.3112 1.09202 1.18445e-19)
(41.3867 1.28786 -3.6276e-19)
(41.4752 1.47511 -1.33417e-19)
(41.567 1.6704 3.50199e-19)
(41.6605 1.8829 -2.38843e-19)
(41.7573 2.11992 -1.16669e-19)
(41.8442 2.37621 1.18472e-21)
(41.9335 2.65055 -3.55375e-20)
(42.0167 2.94343 3.6836e-20)
(42.1058 3.2561 -1.32451e-19)
(42.1886 3.59048 0)
(42.2598 3.94577 0)
(42.3217 4.3169 0)
(42.3836 4.70112 2.62956e-21)
(42.449 5.09254 -4.34064e-20)
(42.5393 5.50753 1.17725e-19)
(42.6444 5.95144 1.93382e-20)
(42.7457 6.45264 0)
(42.8207 7.00878 0)
(42.9034 7.59652 -2.4672e-19)
(43.0044 8.20798 1.31838e-19)
(43.1271 8.85274 -1.08951e-19)
(43.3584 9.55646 1.29769e-19)
(43.5592 10.3052 5.7287e-20)
(43.7164 11.0539 6.20969e-19)
(43.8734 11.7773 -2.94958e-19)
(44.1043 12.5346 1.16617e-18)
(44.395 13.3432 -7.88253e-19)
(44.6837 14.1517 -3.86982e-19)
(45.0225 14.9883 1.83369e-19)
(45.4139 15.8415 9.86539e-19)
(45.8604 16.6878 9.99196e-19)
(46.3776 17.5805 1.58378e-18)
(46.9342 18.4551 -3.31598e-19)
(47.5398 19.3224 2.91542e-18)
(48.2143 20.1819 -3.24285e-18)
(48.9864 21.0375 0)
(49.8605 21.8775 0)
(50.825 22.8504 0)
(51.439 23.6467 0)
(50.8166 23.8098 0)
(44.8601 21.3865 -6.28575e-18)
(23.3814 10.9679 1.03194e-17)
(39.6964 -0.120104 -3.94423e-19)
(40.9816 -0.154865 0)
(41.2357 0.0825777 0)
(41.3154 0.231674 2.11151e-19)
(41.3513 0.507933 2.15958e-19)
(41.4095 0.721587 -2.29649e-19)
(41.4743 0.905704 2.36336e-19)
(41.551 1.09596 -1.18823e-19)
(41.6434 1.26841 5.74347e-20)
(41.7215 1.44695 1.29194e-19)
(41.8008 1.63839 -1.25741e-19)
(41.8985 1.8447 1.30501e-20)
(41.9961 2.06991 1.15784e-19)
(42.1034 2.31705 0)
(42.2116 2.58337 4.74496e-20)
(42.3289 2.87378 -3.42241e-20)
(42.4399 3.18644 2.91724e-21)
(42.5572 3.52424 1.46352e-19)
(42.6751 3.89075 -2.09666e-19)
(42.7968 4.29483 0)
(42.9367 4.74186 0)
(43.0841 5.23335 -2.35279e-19)
(43.1967 5.75309 1.70642e-19)
(43.3023 6.28876 3.9651e-19)
(43.431 6.82807 1.05356e-19)
(43.5761 7.364 -4.4424e-19)
(43.7173 7.93045 6.65965e-19)
(43.8727 8.52192 -7.63276e-19)
(44.0391 9.13471 4.10667e-19)
(44.1226 9.74393 -3.62273e-19)
(44.2464 10.3648 2.16777e-19)
(44.4886 11.0406 -6.85065e-19)
(44.823 11.7834 5.14457e-19)
(45.0992 12.5331 -8.48634e-19)
(45.3734 13.2604 0)
(45.7353 14.0274 -8.4736e-19)
(46.1155 14.7917 -8.64345e-19)
(46.5436 15.5603 1.98508e-19)
(47.0317 16.3625 1.91149e-18)
(47.5737 17.1304 -1.89977e-18)
(48.18 17.902 -3.03331e-19)
(48.8468 18.6685 -3.32388e-18)
(49.5896 19.4215 7.8205e-18)
(50.3675 20.1409 5.03927e-19)
(51.1929 20.8346 6.01775e-19)
(52.0858 21.6732 -3.12081e-18)
(52.366 22.1234 0)
(51.1708 21.9989 5.62683e-18)
(43.6123 18.9937 -2.99023e-18)
(19.9569 8.11582 0)
(39.4859 -0.672186 8.77852e-22)
(41.3573 -0.354818 -1.3309e-22)
(41.5422 -0.0244774 -8.77779e-20)
(41.6216 0.14783 0)
(41.6564 0.4349 -1.57394e-21)
(41.6847 0.597286 -2.5756e-20)
(41.7112 0.825881 0)
(41.7831 1.02434 7.66901e-21)
(41.8787 1.21547 -5.86038e-20)
(41.9821 1.41833 1.11448e-21)
(42.1024 1.64018 -5.9208e-20)
(42.2171 1.87426 -6.85897e-20)
(42.3386 2.12556 5.91116e-21)
(42.4562 2.39777 0)
(42.5898 2.6906 0)
(42.7193 3.00434 0)
(42.8521 3.34113 2.08386e-19)
(42.978 3.69225 -1.48375e-19)
(43.1013 4.05504 4.25458e-19)
(43.2112 4.43384 -5.09557e-20)
(43.3226 4.81616 1.22331e-19)
(43.4485 5.21498 1.63611e-19)
(43.6106 5.64318 -8.00205e-19)
(43.7729 6.10652 -7.07123e-19)
(43.9315 6.61593 0)
(44.0739 7.17828 4.36669e-19)
(44.2298 7.74928 -1.13733e-18)
(44.4032 8.33759 7.05379e-19)
(44.617 8.96354 -4.02855e-19)
(44.9254 9.63254 2.38125e-19)
(45.2226 10.3418 -3.35709e-19)
(45.4662 11.0363 1.26086e-18)
(45.6965 11.6882 -1.40944e-18)
(46.003 12.3655 1.95429e-18)
(46.378 13.0768 8.23712e-19)
(46.7499 13.7763 -1.94695e-18)
(47.1699 14.4956 2.44237e-18)
(47.6361 15.2065 -1.58874e-18)
(48.1498 15.8799 2.91934e-20)
(48.7259 16.5897 0)
(49.3328 17.2617 2.70096e-18)
(49.9767 17.9097 1.84286e-18)
(50.6645 18.5237 2.04593e-19)
(51.4354 19.1102 -5.26934e-18)
(52.325 19.7079 -1.93126e-19)
(53.1246 20.3398 -3.58561e-18)
(53.1818 20.5386 0)
(50.9024 20.0354 5.86079e-18)
(41.067 16.2927 -9.83175e-18)
(15.4865 5.21718 0)
(38.5878 -0.991681 0)
(41.986 -0.263443 0)
(41.8076 -0.0492584 7.75212e-20)
(41.9414 0.106207 -1.20777e-21)
(41.9064 0.34203 -7.89752e-21)
(41.9689 0.437671 2.75624e-20)
(41.991 0.6608 0)
(42.0485 0.86407 -7.68667e-21)
(42.1386 1.0613 -8.04879e-20)
(42.263 1.29182 0)
(42.388 1.52605 1.37483e-19)
(42.5118 1.77077 -5.79047e-20)
(42.6359 2.02062 1.43336e-20)
(42.7884 2.27723 -1.5981e-20)
(42.9256 2.55855 0)
(43.0845 2.86729 0)
(43.2502 3.19385 -6.61285e-20)
(43.4173 3.55268 -2.11044e-19)
(43.5927 3.93854 9.83425e-20)
(43.7755 4.36373 -4.03202e-20)
(43.9632 4.82734 9.53655e-20)
(44.1712 5.32066 -5.61942e-20)
(44.3596 5.83449 4.94177e-19)
(44.5338 6.36888 2.13079e-19)
(44.7358 6.88678 -4.11461e-19)
(44.9474 7.40575 -6.37527e-19)
(45.1459 7.96853 4.18916e-19)
(45.3683 8.54285 6.83072e-19)
(45.5909 9.11886 0)
(45.7482 9.68306 0)
(45.9259 10.2452 0)
(46.2208 10.8539 -8.93993e-19)
(46.6274 11.5236 -6.42374e-19)
(46.9786 12.1924 -6.61491e-19)
(47.3147 12.8276 9.9222e-19)
(47.7312 13.4767 1.21309e-18)
(48.1562 14.0996 -5.65567e-19)
(48.6272 14.7175 1.72403e-18)
(49.1506 15.3678 -1.00716e-18)
(49.7107 15.956 -1.33656e-18)
(50.3167 16.5315 -1.64307e-18)
(50.9741 17.081 1.83205e-18)
(51.7094 17.6059 0)
(52.4804 18.091 2.92496e-18)
(53.3338 18.6211 -1.58667e-18)
(53.7198 18.9147 1.96357e-18)
(53.2448 18.8608 0)
(49.7194 17.8724 -2.91032e-18)
(37.582 13.4418 1.70018e-18)
(9.86576 2.29934 0)
(37.7811 -0.711183 -1.32376e-20)
(42.5749 0.0129093 0)
(41.9101 -0.0279279 -1.5228e-20)
(42.1976 0.108762 4.50623e-20)
(42.1262 0.334878 8.42674e-21)
(42.2192 0.401389 -1.68493e-21)
(42.2891 0.612374 1.87521e-21)
(42.3419 0.782932 0)
(42.4367 0.992604 7.65805e-20)
(42.5493 1.23771 -9.75568e-20)
(42.6876 1.48518 -7.82839e-20)
(42.837 1.74775 1.14656e-19)
(43.0113 2.02967 -1.0372e-19)
(43.1721 2.32524 -2.81365e-20)
(43.3498 2.63097 1.6725e-20)
(43.5162 2.94209 0)
(43.694 3.27299 -2.15949e-19)
(43.872 3.62382 2.67174e-19)
(44.0472 3.98893 5.68012e-20)
(44.2268 4.36022 -5.33212e-21)
(44.4077 4.74484 6.25065e-20)
(44.5769 5.14138 0)
(44.7886 5.56386 1.0335e-19)
(45.0107 6.01837 4.2562e-19)
(45.2153 6.53576 5.22085e-19)
(45.4332 7.08037 6.41126e-19)
(45.6521 7.61746 0)
(45.8859 8.18083 -4.82539e-19)
(46.1662 8.77176 -1.05592e-18)
(46.5345 9.39779 5.9069e-19)
(46.9014 10.0514 -1.28197e-18)
(47.2062 10.6833 -6.3555e-19)
(47.4764 11.2584 1.14667e-18)
(47.8123 11.8409 -4.21164e-19)
(48.2255 12.4501 -1.00081e-18)
(48.6318 13.043 -5.37011e-19)
(49.0775 13.6466 -7.37335e-19)
(49.5558 14.2256 0)
(50.0718 14.7372 -1.2094e-18)
(50.6361 15.2789 2.68424e-18)
(51.2228 15.7692 1.6586e-18)
(51.8391 16.2302 -1.96624e-18)
(52.4725 16.6399 2.54626e-18)
(53.1762 17.0279 -1.32248e-18)
(53.9121 17.3957 3.26522e-18)
(54.0624 17.4685 1.60719e-20)
(52.9928 17.1517 0)
(47.6279 15.469 5.96989e-18)
(32.5647 10.119 -5.0691e-18)
(5.73303 0.321593 -1.85895e-18)
(37.4441 -0.259095 1.32485e-20)
(42.848 0.229806 -5.90626e-20)
(41.8801 -0.013728 2.46346e-20)
(42.4861 0.125748 -4.40873e-20)
(42.2579 0.355467 -4.53594e-20)
(42.4417 0.393414 -3.08221e-21)
(42.5209 0.611748 1.84842e-21)
(42.6435 0.756913 0)
(42.7745 0.951444 -1.12789e-19)
(42.8889 1.17985 1.69198e-19)
(42.9987 1.38103 0)
(43.1507 1.59578 -1.30952e-20)
(43.3092 1.84443 -5.66877e-21)
(43.4997 2.12578 1.57806e-19)
(43.6959 2.41756 -2.44135e-19)
(43.9209 2.72787 -3.16917e-21)
(44.1349 3.04999 3.54136e-20)
(44.3484 3.40002 0)
(44.5776 3.78666 -1.46011e-19)
(44.8131 4.20955 3.40896e-19)
(45.0632 4.67409 -4.01465e-20)
(45.3423 5.15982 0)
(45.585 5.653 0)
(45.8213 6.16551 -2.12807e-19)
(46.1001 6.6497 9.4865e-20)
(46.3638 7.16991 -7.0062e-19)
(46.6142 7.7117 2.67082e-19)
(46.8836 8.25504 -1.55214e-19)
(47.1518 8.79502 5.14817e-19)
(47.3626 9.31884 2.26535e-19)
(47.5698 9.82436 7.45266e-19)
(47.8813 10.3593 -7.72175e-19)
(48.3176 10.9462 4.94691e-19)
(48.7026 11.537 -5.22834e-19)
(49.0535 12.0835 -6.23015e-19)
(49.4764 12.6279 -6.78326e-19)
(49.8971 13.1316 0)
(50.359 13.6127 1.61815e-18)
(50.8581 14.1323 -6.04856e-19)
(51.3766 14.5722 -1.45621e-18)
(51.921 14.9903 1.73408e-18)
(52.4982 15.362 -4.85189e-20)
(53.1553 15.7109 -1.30975e-18)
(53.943 16.0808 -2.76302e-20)
(54.2755 16.2185 -1.69133e-18)
(53.9692 16.1062 -4.29949e-18)
(51.591 15.3264 2.42861e-18)
(43.9812 12.8464 0)
(26.4625 6.7084 -3.3434e-18)
(2.95825 -0.391308 6.41519e-18)
(37.5307 0.249739 1.18907e-22)
(42.8693 0.322618 5.84606e-20)
(41.7229 0.15033 -1.93177e-20)
(42.6893 0.186189 -6.96582e-22)
(42.3256 0.459846 4.55244e-20)
(42.6014 0.426879 0)
(42.6574 0.689989 0)
(42.8437 0.768619 -3.67893e-21)
(43.0363 0.966384 2.00962e-19)
(43.1681 1.17339 -7.44836e-20)
(43.315 1.38822 7.01868e-21)
(43.4888 1.60786 -1.64603e-20)
(43.6783 1.84844 7.26946e-20)
(43.8634 2.09793 -7.79409e-20)
(44.0926 2.37828 3.53965e-19)
(44.3164 2.68739 -8.27525e-20)
(44.5565 3.02237 1.01357e-19)
(44.8035 3.35314 2.97332e-20)
(45.0375 3.68897 -3.19947e-19)
(45.2855 4.04041 -2.21195e-19)
(45.5241 4.40665 4.14756e-21)
(45.7489 4.8125 -5.94692e-20)
(46.0306 5.23231 0)
(46.3011 5.67963 -2.84268e-19)
(46.5279 6.184 3.95471e-21)
(46.8063 6.68111 7.12127e-20)
(47.0695 7.19955 7.55364e-20)
(47.346 7.7334 1.99933e-19)
(47.6638 8.28289 0)
(48.0574 8.86269 1.3936e-19)
(48.4669 9.46487 7.90181e-19)
(48.8134 10.0536 7.28305e-19)
(49.0951 10.5725 -3.92247e-19)
(49.4226 11.0702 8.10087e-19)
(49.8303 11.589 -6.60615e-19)
(50.2239 12.0861 -4.06302e-19)
(50.6464 12.5895 0)
(51.089 13.0742 -1.0819e-18)
(51.56 13.4661 -6.85777e-19)
(52.0586 13.8777 7.66015e-19)
(52.5685 14.2264 -9.18098e-19)
(53.11 14.5556 1.09101e-18)
(53.7089 14.8706 0)
(54.1407 15.0612 6.98523e-19)
(54.1702 15.0604 0)
(53.2378 14.7327 1.07948e-18)
(49.4137 13.5623 -2.44779e-18)
(39.0127 10.3501 1.38708e-18)
(17.8247 3.49951 0)
(0.652606 -0.328839 4.16648e-19)
(38.0007 0.577408 2.02236e-23)
(42.8482 0.31602 2.12388e-23)
(41.513 0.375057 2.00957e-20)
(42.9716 0.282986 1.26991e-22)
(42.3579 0.588582 1.07637e-21)
(42.8022 0.476473 1.88342e-22)
(42.7567 0.74891 -2.0969e-22)
(42.9969 0.773183 5.70012e-22)
(43.2049 0.906772 -7.794e-20)
(43.3916 1.06115 -1.78232e-21)
(43.5963 1.2254 -1.08007e-21)
(43.7906 1.43246 2.53334e-21)
(43.98 1.64372 8.84502e-20)
(44.214 1.85789 -1.10264e-19)
(44.4389 2.08277 -1.42658e-19)
(44.6888 2.35398 8.25579e-20)
(44.9568 2.6576 -9.81289e-20)
(45.2495 3.005 -4.52417e-21)
(45.5492 3.38953 -5.49994e-21)
(45.8315 3.79904 0)
(46.1498 4.23419 -8.04598e-21)
(46.4756 4.68158 -4.70362e-21)
(46.7592 5.16705 5.25774e-21)
(47.0855 5.65437 0)
(47.4242 6.13735 0)
(47.7403 6.65922 2.69939e-19)
(48.0359 7.17127 0)
(48.3325 7.69178 -2.00196e-19)
(48.629 8.20579 0)
(48.8689 8.69997 9.89273e-21)
(49.0773 9.16396 -3.63421e-19)
(49.3698 9.63026 2.5846e-20)
(49.7991 10.1443 -5.1575e-19)
(50.1892 10.6846 4.61022e-20)
(50.5246 11.1672 2.96597e-19)
(50.9169 11.6411 4.58269e-19)
(51.2958 12.0639 -1.59483e-20)
(51.7094 12.4381 0)
(52.143 12.861 -1.10494e-20)
(52.5801 13.2032 1.29764e-20)
(53.0299 13.5283 0)
(53.5094 13.8125 -1.74546e-20)
(54.0806 14.0921 -7.86704e-20)
(54.2548 14.1556 -6.3732e-19)
(53.9628 14.0845 -1.39762e-20)
(51.8661 13.5179 0)
(45.5222 11.7815 0)
(31.2223 7.7299 1.90339e-19)
(8.40627 1.19881 -1.88219e-19)
(-1.00835 -0.0418625 4.2523e-19)
(38.602 0.896802 4.802e-20)
(42.8269 0.147809 6.44451e-20)
(41.4108 0.610685 3.05191e-20)
(43.1499 0.270537 4.57628e-20)
(42.3348 0.64121 4.28255e-20)
(43.0017 0.442369 -6.06424e-20)
(42.84 0.780865 0)
(43.1243 0.731998 0)
(43.3022 0.882371 5.33775e-20)
(43.509 0.986892 1.7821e-21)
(43.7803 1.10672 -7.58457e-20)
(44.0043 1.31216 -5.58329e-21)
(44.2533 1.5378 -1.14456e-19)
(44.5257 1.73932 1.41628e-19)
(44.8015 1.9907 1.88679e-19)
(45.066 2.24056 0)
(45.3407 2.49591 0)
(45.6358 2.77859 4.52348e-21)
(45.9582 3.10022 5.49908e-21)
(46.2879 3.44413 -2.41383e-19)
(46.5823 3.8044 8.0447e-21)
(46.8882 4.20737 0)
(47.2246 4.60948 0)
(47.5185 5.05568 -6.13619e-20)
(47.8036 5.52751 -3.03266e-19)
(48.1038 6.01071 9.16522e-20)
(48.414 6.52535 0)
(48.7192 7.04441 -2.48745e-19)
(49.0532 7.56532 0)
(49.4463 8.10953 -9.89006e-21)
(49.8665 8.67609 0)
(50.2331 9.24906 0)
(50.502 9.74279 1.39983e-19)
(50.7907 10.1752 1.64516e-19)
(51.1576 10.6357 0)
(51.5099 11.0643 0)
(51.8814 11.4952 1.59399e-20)
(52.2618 11.9301 0)
(52.6584 12.261 1.10424e-20)
(53.0649 12.5988 -4.38792e-19)
(53.4783 12.8749 4.99427e-19)
(54.0172 13.2011 3.92593e-20)
(54.2308 13.3461 2.47938e-20)
(54.0966 13.3798 -7.57148e-19)
(52.9343 13.134 -4.46101e-19)
(49.0448 12.1578 2.54493e-18)
(39.6534 9.68337 -1.14967e-18)
(21.5526 4.68012 -1.32743e-18)
(3.30754 0.36936 1.09241e-18)
(-1.71737 0.114025 0)
(39.2336 1.11496 -4.78071e-20)
(42.6872 -0.356334 8.11048e-20)
(41.4727 0.681674 -2.97712e-20)
(43.348 0.0910074 5.77262e-20)
(42.2999 0.637508 -4.545e-20)
(43.2513 0.270003 6.2255e-20)
(42.9133 0.718964 4.99414e-21)
(43.3128 0.580225 -5.57448e-21)
(43.3945 0.769222 -4.58723e-20)
(43.6779 0.795373 -8.32299e-21)
(43.9753 0.859546 8.07966e-20)
(44.1986 1.01566 2.19444e-19)
(44.4483 1.16844 -1.47601e-19)
(44.7509 1.34625 -1.29157e-19)
(45.0574 1.55248 -6.12049e-19)
(45.3826 1.79412 3.10092e-20)
(45.7213 2.05763 -3.46131e-20)
(46.0438 2.34824 3.66861e-19)
(46.376 2.6835 5.49266e-20)
(46.7458 3.07705 1.79746e-19)
(47.1409 3.4805 0)
(47.5096 3.90591 0)
(47.8685 4.39552 0)
(48.2805 4.87403 0)
(48.6606 5.37311 2.98308e-19)
(49.0179 5.87539 -7.80052e-19)
(49.368 6.3866 0)
(49.673 6.91136 7.91044e-19)
(49.984 7.42858 0)
(50.2394 7.92013 0)
(50.4266 8.36894 -8.75711e-19)
(50.6686 8.78379 5.07561e-19)
(51.0622 9.24549 -1.16212e-18)
(51.437 9.76868 3.34866e-19)
(51.7419 10.2137 0)
(52.0801 10.6547 0)
(52.3963 11.0423 5.55455e-19)
(52.7447 11.3568 -1.90779e-18)
(53.1027 11.7217 0)
(53.4515 12.0203 -1.32004e-18)
(53.8817 12.3653 1.92161e-18)
(54.1594 12.6093 -2.0933e-18)
(54.1688 12.6761 1.22791e-18)
(53.6092 12.6417 -1.55763e-18)
(51.2897 12.1612 3.95185e-18)
(44.9441 10.6595 -3.48457e-18)
(31.3687 7.24473 2.26938e-18)
(9.59596 1.71832 -5.05167e-18)
(-0.181539 0.228223 6.00868e-18)
(-2.0606 0.0659492 -3.85884e-18)
(39.6401 1.30909 -1.22713e-19)
(42.456 -0.806003 1.20685e-20)
(41.6909 0.828758 0)
(43.3635 -0.211295 -1.02809e-19)
(42.2455 0.598952 -2.21963e-19)
(43.4106 0.00359885 8.35574e-21)
(42.9408 0.616356 0)
(43.448 0.331763 0)
(43.4248 0.663164 -1.63913e-20)
(43.7575 0.630928 1.83066e-20)
(44.0375 0.691884 -3.88349e-19)
(44.3258 0.808798 2.55832e-19)
(44.6346 0.933788 2.69149e-19)
(44.9208 1.10665 -3.56486e-19)
(45.2493 1.31018 4.04602e-19)
(45.6201 1.50448 6.78017e-20)
(45.986 1.73845 -7.2921e-19)
(46.3744 2.00544 -1.16271e-18)
(46.7537 2.25171 0)
(47.1205 2.53931 5.82962e-19)
(47.496 2.91959 7.02076e-19)
(47.8967 3.29806 0)
(48.2714 3.68038 -1.01035e-18)
(48.609 4.13153 0)
(48.9802 4.60599 0)
(49.3219 5.12013 7.77989e-19)
(49.6593 5.64663 5.05079e-19)
(49.9871 6.17129 1.18118e-18)
(50.3281 6.68925 0)
(50.6982 7.2278 0)
(51.1085 7.79017 4.11014e-19)
(51.4838 8.37618 5.15707e-19)
(51.7242 8.87718 1.88384e-18)
(51.95 9.27256 2.83241e-20)
(52.2487 9.7091 3.27284e-20)
(52.5477 10.0996 -1.92941e-18)
(52.8662 10.4865 -4.3068e-20)
(53.1856 10.902 2.55546e-18)
(53.5063 11.2241 1.52467e-18)
(53.8687 11.5701 8.44567e-19)
(54.2272 11.8876 1.89075e-18)
(54.3193 11.9909 6.73247e-20)
(54.069 12.0667 -2.61326e-18)
(52.5582 11.9201 -1.52963e-18)
(48.0613 10.9779 -4.36187e-18)
(37.7619 8.56885 4.92091e-18)
(19.4061 4.10949 -2.19105e-18)
(3.05149 0.76867 0)
(-1.99112 0.437176 0)
(-2.02326 0.190828 7.61654e-19)
(39.9183 1.40642 3.81035e-19)
(42.1558 -1.10944 1.73266e-19)
(42.055 0.898134 -1.58297e-19)
(43.2944 -0.528814 6.67013e-21)
(42.2271 0.522152 4.37089e-19)
(43.5272 -0.285354 -8.87382e-21)
(42.9496 0.402853 0)
(43.596 -0.0332455 -4.63114e-19)
(43.4847 0.423589 -1.7409e-20)
(43.8501 0.27887 -2.143e-21)
(44.0907 0.428108 8.17634e-19)
(44.4245 0.434497 -4.41751e-19)
(44.7659 0.468458 3.50714e-21)
(45.0618 0.616305 3.11655e-19)
(45.397 0.759298 0)
(45.7817 0.929875 0)
(46.1991 1.15921 5.63498e-19)
(46.6207 1.4326 8.92899e-19)
(47.0683 1.76506 0)
(47.5148 2.08181 -5.81125e-19)
(47.9606 2.42541 -6.99732e-19)
(48.3969 2.87644 -2.26757e-19)
(48.8695 3.35795 1.75202e-19)
(49.3401 3.83312 9.72531e-19)
(49.7597 4.34036 3.60377e-19)
(50.1889 4.85911 4.50598e-19)
(50.599 5.40243 -1.49491e-18)
(50.9226 5.96175 -1.16585e-18)
(51.2427 6.51736 1.46562e-18)
(51.5101 7.04978 -1.70389e-18)
(51.6737 7.52219 0)
(51.836 7.9265 0)
(52.1653 8.36436 5.63995e-20)
(52.5015 8.88716 -1.46034e-18)
(52.7706 9.31409 1.75041e-18)
(53.0497 9.74628 3.02896e-18)
(53.2995 10.1337 -1.1286e-18)
(53.5859 10.4315 -2.68497e-18)
(53.9066 10.7793 -3.05621e-18)
(54.2685 11.1352 -1.73726e-18)
(54.4036 11.3289 -5.80078e-20)
(54.2619 11.4869 2.29635e-18)
(53.2627 11.5036 0)
(50.1342 10.9612 1.51334e-18)
(42.4303 9.2938 1.71954e-18)
(27.689 5.95338 1.92208e-18)
(7.62357 1.53522 6.4567e-18)
(-0.673848 0.637612 -2.4097e-18)
(-2.836 0.46888 0)
(-1.88249 0.293567 0)
(40.0728 1.41943 3.91051e-21)
(41.8987 -1.32344 -3.31636e-19)
(42.2729 0.98237 1.63928e-19)
(43.0441 -0.855519 -4.6936e-19)
(42.2509 0.481158 -2.36216e-19)
(43.4743 -0.548744 -8.22098e-22)
(42.8533 0.249148 1.10628e-20)
(43.6329 -0.363002 4.32633e-19)
(43.4184 0.190051 3.29703e-20)
(43.8611 -0.0478201 4.45432e-20)
(44.0063 0.174957 -4.00171e-19)
(44.4123 0.166087 -6.06623e-20)
(44.8157 0.209342 -6.33255e-19)
(45.1463 0.328582 -7.78909e-19)
(45.4818 0.44182 1.23839e-19)
(45.8913 0.555488 -1.38138e-19)
(46.3148 0.718816 0)
(46.7832 0.922161 -8.79114e-19)
(47.2759 1.14291 0)
(47.7499 1.44333 0)
(48.2068 1.77194 0)
(48.6812 2.07931 -4.83468e-19)
(49.1216 2.48311 1.61952e-18)
(49.5762 2.95122 -1.28836e-18)
(50.0404 3.45813 0)
(50.4355 4.00164 -4.81688e-19)
(50.8006 4.56593 -1.74134e-18)
(51.1758 5.13369 -2.66754e-18)
(51.5341 5.70584 -2.22097e-18)
(51.8788 6.28003 1.63422e-18)
(52.2616 6.87553 -2.01956e-18)
(52.644 7.50938 1.14663e-18)
(52.8526 8.05631 2.74562e-18)
(53.0021 8.45257 0)
(53.2022 8.88408 1.86792e-18)
(53.4234 9.25495 -4.06331e-18)
(53.693 9.60507 -6.45001e-20)
(53.9851 10.0075 2.65593e-18)
(54.2969 10.3652 1.50377e-18)
(54.5345 10.7053 0)
(54.5081 10.8852 2.05768e-18)
(53.8973 10.994 -2.35106e-18)
(51.7862 10.7257 5.30069e-18)
(45.9006 9.64347 0)
(33.7936 7.13128 -6.79833e-18)
(13.3667 2.72299 1.88266e-18)
(1.63586 0.891404 -2.117e-18)
(-2.36293 0.694017 -2.36401e-18)
(-3.02406 0.574996 5.26479e-18)
(-1.62809 0.335547 1.88777e-21)
(40.0809 1.39796 -2.59505e-19)
(41.6176 -1.43572 3.22332e-19)
(42.5139 0.961171 -3.26253e-19)
(42.7333 -1.08245 9.24611e-19)
(42.349 0.395233 -4.66526e-19)
(43.3724 -0.83094 3.81822e-20)
(42.7995 0.0590418 -3.58868e-19)
(43.6514 -0.712383 0)
(43.4224 -0.0943993 -5.20897e-19)
(43.8853 -0.494451 7.374e-19)
(43.9321 -0.144696 4.90823e-21)
(44.3525 -0.319986 -6.11763e-20)
(44.7298 -0.28279 6.31138e-19)
(45.1347 -0.230952 -9.36503e-21)
(45.5561 -0.164935 8.45468e-19)
(45.9483 -0.0505441 1.42233e-19)
(46.3971 0.0989213 0)
(46.8635 0.280057 8.75193e-19)
(47.3941 0.546494 2.21145e-18)