/*--------------------------------*- C++ -*----------------------------------*\
| =========                 |                                                 |
| \\      /  F ield         | OpenFOAM: The Open Source CFD Toolbox           |
|  \\    /   O peration     | Version:  v1912                                 |
|   \\  /    A nd           | Website:  www.openfoam.com                      |
|    \\/     M anipulation  |                                                 |
\*---------------------------------------------------------------------------*/
FoamFile
{
    version     2.0;
    format      ascii;
    class       volScalarField;
    location    "0.11";
    object      p;
}
// * * * * * * * * * * * * * * * * * * * * * * * * * * * * * * * * * * * * * //

dimensions      [0 2 -2 0 0 0 0];


internalField   nonuniform List<scalar> 
6600
(
62.9381
58.1847
55.7818
54.2681
53.4775
53.1415
53.0731
53.2973
53.8666
54.6993
55.7715
57.1753
58.9629
61.0802
63.5624
66.4388
69.6472
73.2173
77.1136
81.326
85.8706
90.7056
95.832
101.212
106.752
112.339
117.886
123.506
128.988
134.127
138.738
142.732
145.929
148.093
148.984
148.24
145.372
140.005
131.805
120.265
104.821
84.8739
59.8062
29.1072
-8.27836
-53.111
-105.568
-166.407
-237.474
-311.527
59.656
54.6842
52.8326
51.0818
49.9294
49.2817
48.9271
48.8624
49.1167
49.6099
50.3978
51.4552
52.8431
54.5243
56.6125
59.1408
61.8916
64.9716
68.3141
71.8854
75.7708
79.868
84.1929
88.6888
93.2744
97.8774
102.197
106.259
110.224
113.962
117.005
119.105
120.252
120.234
118.719
115.421
109.77
101.424
90.0247
75.0702
55.9794
32.1255
2.89852
-32.3086
-74.3008
-123.925
-181.349
-246.669
-320.611
-395.553
55.1621
49.8222
48.7686
46.8677
45.5329
44.6546
44.0677
43.7571
43.7653
44.0334
44.598
45.4432
46.5825
48.0071
49.622
51.5455
53.8938
56.4414
59.2455
62.2671
65.4782
68.8592
72.3717
75.9473
79.5131
83.0314
86.2836
89.0342
91.3978
93.3313
94.5829
94.8611
93.9047
91.5027
87.3891
81.251
72.6427
61.1377
46.3723
27.8472
4.99397
-22.7662
-56.0243
-95.3945
-141.45
-194.987
-256.193
-324.311
-398.257
-469.876
49.7888
44.097
43.6853
41.5313
40.2675
39.2599
38.455
37.9135
37.6969
37.7852
38.1266
38.6996
39.5056
40.6094
42.0197
43.4809
45.2601
47.2718
49.5169
51.9325
54.4791
57.1142
59.7679
62.3872
64.8805
67.2326
69.3047
70.8068
71.6824
71.8649
71.1327
69.2781
66.1116
61.3081
54.5279
45.481
33.8196
19.1322
0.9965
-21.054
-47.5151
-78.8957
-115.697
-158.426
-207.553
-263.77
-327.156
-396.094
-468.141
-534.054
43.648
37.7793
37.6843
35.1262
33.889
32.7578
31.8127
31.1088
30.7161
30.5881
30.7282
31.0878
31.6357
32.3548
33.2215
34.3751
35.6162
37.0387
38.6489
40.3667
42.1792
44.0003
45.7379
47.3402
48.7049
49.7811
50.4912
50.6363
49.9981
48.4243
45.8
41.9133
36.4722
29.2203
19.8446
8.0233
-6.57773
-24.3279
-45.5882
-70.7886
-100.36
-134.694
-174.19
-219.232
-270.152
-327.451
-391.135
-459.415
-528.203
-586.518
36.9504
30.7187
30.6064
27.7571
26.4723
25.1978
24.1214
23.3
22.6816
22.2809
22.0985
22.121
22.366
22.7597
23.289
23.8293
24.5195
25.2961
26.164
27.1074
28.0613
28.9622
29.7064
30.2308
30.4243
30.2259
29.5427
28.2027
26.0483
22.8307
18.3018
12.3289
4.72973
-4.80974
-16.6153
-30.9893
-48.2232
-68.6084
-92.4881
-120.215
-152.106
-188.462
-229.555
-275.648
-326.995
-383.924
-446.422
-512.602
-576.631
-625.69
29.2967
22.862
22.5915
19.3733
18.0367
16.6281
15.3905
14.3821
13.5705
12.9207
12.438
12.0539
11.7838
11.5913
11.5911
11.6434
11.6788
11.7585
11.8369
11.9009
11.9148
11.8049
11.4866
10.8793
9.87376
8.35828
6.22834
3.36101
-0.41152
-5.29643
-11.5227
-19.3171
-28.9385
-40.5988
-54.5379
-71.0329
-90.3742
-112.831
-138.63
-168.044
-201.312
-238.619
-280.14
-326.058
-376.583
-432.01
-491.924
-554.442
-612.757
-651.287
20.6002
14.2742
13.8016
10.2571
8.72409
7.0884
5.63998
4.36775
3.22427
2.28087
1.3199
0.450783
-0.327
-1.04034
-1.82965
-2.50378
-3.12579
-3.81497
-4.5609
-5.40661
-6.41787
-7.60783
-9.05415
-10.8312
-13.0606
-15.8108
-19.2491
-23.5829
-28.9223
-35.4201
-43.3288
-52.8537
-64.1752
-77.5404
-93.1867
-111.334
-132.195
-155.962
-182.86
-213.075
-246.736
-283.959
-324.827
-369.422
-417.929
-470.758
-527.544
-585.461
-636.948
-664.919
10.8011
4.75413
4.02523
0.345597
-1.34106
-3.2743
-4.98648
-6.54836
-8.04552
-9.51805
-10.9632
-12.3844
-13.8953
-15.3797
-16.7824
-18.2724
-19.7505
-21.3302
-22.99
-24.8192
-26.8584
-29.1521
-31.7355
-34.6904
-38.1383
-42.2225
-46.9768
-52.5945
-59.2734
-67.2189
-76.5601
-87.4623
-100.174
-114.875
-131.727
-150.904
-172.595
-196.98
-224.173
-254.295
-287.432
-323.616
-362.878
-405.277
-450.925
-500.124
-552.998
-606.006
-650.836
-670.085
-0.514746
-5.95816
-6.89563
-10.4085
-12.128
-14.413
-16.5097
-18.4542
-20.3945
-22.3963
-24.486
-26.6257
-28.7711
-31.0098
-33.3565
-35.7166
-38.2028
-40.733
-43.4096
-46.2643
-49.3668
-52.732
-56.4344
-60.5189
-65.0685
-70.2269
-76.1736
-83.0435
-90.9532
-100.028
-110.501
-122.52
-136.191
-151.698
-169.202
-188.852
-210.76
-235.008
-261.721
-290.976
-322.784
-357.147
-394.026
-433.396
-475.406
-520.471
-568.358
-616.174
-656.028
-670.305
-12.9517
-17.5627
-18.5891
-21.8262
-23.5726
-26.1618
-28.6742
-31.1848
-33.7118
-36.3395
-39.0979
-41.9673
-45.0118
-48.1184
-51.3038
-54.6532
-58.1426
-61.7671
-65.5439
-69.4915
-73.6431
-78.0768
-82.847
-88.0036
-93.6577
-99.9038
-106.858
-114.628
-123.382
-133.332
-144.557
-157.175
-171.365
-187.232
-204.88
-224.393
-245.863
-269.388
-294.992
-322.696
-352.51
-384.388
-418.265
-454.064
-491.736
-531.955
-573.685
-614.741
-648.387
-661.97
-25.7475
-29.6187
-30.6771
-33.7709
-35.6352
-38.514
-41.3714
-44.477
-47.7803
-51.1381
-54.6598
-58.3738
-62.179
-66.2818
-70.6135
-75.0141
-79.5462
-84.3111
-89.1831
-94.2226
-99.457
-104.932
-110.68
-116.782
-123.305
-130.358
-138.097
-146.671
-156.123
-166.515
-178.076
-190.938
-205.164
-220.866
-238.118
-257.01
-277.578
-299.806
-323.731
-349.358
-376.637
-405.513
-435.858
-467.462
-500.476
-534.817
-568.903
-599.843
-621.236
-633.126
-38.5652
-41.9417
-42.9462
-46.0231
-48.2174
-51.4348
-54.6297
-58.1973
-62.0817
-66.4204
-70.8965
-75.5589
-80.5017
-85.4625
-90.7235
-96.3333
-102.024
-107.901
-113.959
-120.144
-126.457
-132.929
-139.638
-146.632
-153.975
-161.74
-170.01
-178.877
-188.508
-199.081
-210.64
-223.276
-237.12
-252.229
-268.676
-286.472
-305.626
-326.167
-348.047
-371.195
-395.555
-421.017
-447.404
-474.462
-502.352
-529.804
-555.032
-574.055
-581.741
-588.66
-51.3076
-54.1392
-55.0799
-58.2723
-60.8395
-64.4351
-68.2516
-72.4183
-76.9014
-81.8596
-87.342
-93.0279
-99.0589
-105.491
-111.915
-118.53
-125.474
-132.482
-139.66
-146.998
-154.377
-161.857
-169.442
-177.156
-185.037
-193.193
-201.767
-210.874
-220.549
-230.841
-241.943
-253.984
-267.03
-281.16
-296.377
-312.733
-330.231
-348.772
-368.299
-388.747
-409.977
-431.812
-453.988
-476.669
-498.854
-519.169
-536.128
-547.289
-552.034
-554.173
-63.6428
-65.8773
-66.725
-70.2429
-73.0279
-77.081
-81.3268
-86.2237
-91.7777
-97.554
-103.8
-110.688
-117.801
-125.22
-133.125
-141.101
-149.209
-157.516
-166.005
-174.44
-182.925
-191.408
-199.85
-208.266
-216.718
-225.229
-233.841
-242.636
-251.79
-261.527
-271.906
-282.991
-294.897
-307.681
-321.421
-336.086
-351.618
-368
-385.124
-402.834
-420.975
-439.301
-457.702
-475.867
-492.996
-507.842
-518.615
-524.125
-530.541
-531.138
-74.8388
-76.4089
-77.4757
-81.2033
-84.3003
-89.0084
-93.8429
-99.3298
-105.682
-112.757
-120.045
-127.85
-136.341
-145.162
-154.227
-163.699
-173.25
-182.834
-192.531
-202.278
-211.958
-221.448
-230.724
-239.776
-248.577
-257.154
-265.62
-274.147
-282.776
-291.552
-300.696
-310.418
-320.836
-332.05
-344.033
-356.81
-370.379
-384.605
-399.35
-414.502
-429.886
-445.204
-460.256
-474.682
-487.786
-498.403
-505.242
-508.842
-511.346
-512.925
-84.2208
-84.9654
-86.8725
-90.6292
-94.0507
-99.4446
-105.067
-111.621
-118.637
-126.426
-135.202
-144.323
-153.785
-163.993
-174.638
-185.567
-196.737
-207.965
-219.092
-230.155
-241.082
-251.709
-261.954
-271.736
-280.989
-289.743
-298.036
-305.859
-313.378
-320.906
-328.626
-336.689
-345.29
-354.553
-364.628
-375.489
-387.018
-399.163
-411.819
-424.841
-437.969
-450.688
-462.929
-474.322
-484.184
-491.459
-495.367
-499.305
-499.939
-501.269
-91.6686
-91.5415
-94.1339
-98.0028
-102.169
-108.034
-114.415
-121.858
-129.966
-138.795
-148.436
-159.086
-170.287
-181.823
-194.017
-206.581
-219.438
-232.345
-245.237
-257.903
-270.266
-282.22
-293.58
-304.186
-313.917
-322.711
-330.636
-337.847
-344.442
-350.53
-356.347
-362.274
-368.637
-375.735
-383.641
-392.391
-401.999
-412.343
-423.311
-434.719
-445.86
-456.279
-466.235
-475.116
-481.858
-485.785
-489.377
-491.163
-492.171
-492.751
-96.2538
-96.4017
-99.4693
-103.341
-108.218
-114.533
-121.559
-129.954
-139.222
-149.276
-160.108
-171.657
-184.26
-197.708
-211.58
-225.947
-240.722
-255.709
-270.529
-285.102
-299.189
-312.705
-325.443
-337.154
-347.691
-356.898
-364.724
-371.221
-376.487
-380.748
-384.451
-387.965
-391.709
-396.046
-401.384
-407.931
-415.595
-424.33
-434.102
-444.133
-453.48
-462.459
-470.564
-476.658
-480.211
-482.202
-483.893
-485.445
-486.609
-486.923
-98.0453
-98.6758
-103.145
-106.714
-112.194
-118.971
-126.478
-135.438
-145.7
-156.933
-169.044
-182.273
-196.364
-211.267
-226.932
-243.326
-260.178
-277.283
-294.435
-311.311
-327.629
-343.149
-357.641
-370.816
-382.448
-392.257
-400.093
-406.027
-410.237
-412.856
-414.172
-414.68
-415.053
-416.084
-418.339
-422.106
-427.648
-435.166
-443.945
-452.602
-461.263
-469.367
-475.246
-478.323
-479.286
-480.202
-480.768
-482.231
-483.408
-483.774
-97.1976
-99.1978
-103.462
-108.146
-114.108
-121.393
-129.456
-138.723
-149.498
-161.739
-175.057
-189.544
-205.258
-221.927
-239.566
-258.037
-277.209
-296.795
-316.486
-336.007
-354.992
-373.043
-389.791
-404.991
-418.298
-429.366
-437.931
-443.83
-446.983
-447.592
-446.219
-443.423
-439.966
-436.738
-434.753
-434.989
-437.934
-443.66
-451.039
-459.909
-469.276
-476.422
-480.122
-480.772
-480.631
-480.037
-480.285
-481.167
-481.931
-482.359
-94.02
-97.5661
-101.72
-107.153
-113.528
-121.028
-129.667
-139.948
-151.014
-163.519
-178.126
-193.946
-210.888
-229.234
-248.892
-269.649
-291.233
-313.51
-336.14
-358.73
-380.857
-402.028
-421.782
-439.701
-455.367
-468.303
-478.038
-484.266
-486.996
-486.369
-482.494
-475.901
-467.537
-458.831
-451.403
-446.425
-444.749
-447.63
-455.067
-465.896
-476.118
-482.769
-485.207
-485.265
-483.79
-482.457
-481.343
-480.605
-480.418
-480.704
-90.071
-94.6749
-98.3843
-104.003
-110.479
-118.307
-127.353
-138.065
-149.917
-162.829
-177.828
-194.583
-212.925
-233.046
-254.701
-277.554
-301.699
-326.883
-352.708
-378.79
-404.593
-429.542
-453.055
-474.512
-493.299
-509.009
-521.073
-528.846
-531.932
-530.214
-523.784
-513.265
-499.726
-484.472
-469.345
-456.772
-448.478
-447.174
-453.912
-466.108
-478.985
-486.801
-490.069
-489.396
-487.32
-484.38
-481.437
-479.002
-477.729
-477.387
-85.6404
-91.4288
-93.6967
-99.1072
-105.293
-113.348
-122.361
-133.08
-145.361
-159.504
-174.987
-192.051
-211.536
-232.951
-256.264
-281.432
-308.153
-336.32
-365.553
-395.439
-425.402
-454.801
-482.877
-508.818
-531.875
-551.428
-566.692
-576.841
-581.326
-579.776
-571.915
-558.04
-538.797
-515.576
-490.995
-467.808
-449.017
-439.413
-443.105
-457.81
-475.074
-486.366
-490.722
-490.115
-487.529
-483.551
-479.216
-475.435
-473.001
-471.795
-79.4796
-85.6566
-87.1806
-93.5074
-98.5638
-106.684
-115.436
-125.969
-138.354
-152.516
-168.457
-186.433
-206.794
-229.156
-253.831
-280.882
-310.188
-341.329
-374.075
-408.001
-442.53
-476.937
-510.343
-541.79
-570.247
-594.775
-614.583
-628.74
-636.207
-636.142
-627.921
-611.336
-586.901
-555.963
-520.238
-482.344
-447.478
-425.797
-423.595
-437.494
-458.667
-477.328
-484.92
-486.865
-485.704
-482.427
-477.689
-472.806
-469.295
-467.023
-69.7862
-78.1603
-79.5156
-86.3664
-90.8201
-98.8281
-106.994
-117.412
-129.246
-143.234
-159.411
-177.843
-198.432
-221.366
-247.436
-276.222
-307.577
-341.53
-377.769
-415.846
-455.224
-495.129
-534.593
-572.452
-607.503
-638.535
-664.405
-683.865
-695.59
-698.627
-692.14
-675.141
-647.164
-608.651
-560.757
-506.663
-452.784
-412.615
-397.078
-406.423
-432.738
-458.648
-478.249
-488.929
-491.586
-488.711
-483.384
-477.367
-472.52
-469.414
-61.4586
-69.0552
-70.6243
-77.6661
-82.5346
-90.2514
-97.7269
-107.81
-118.662
-132.217
-147.979
-166.236
-187.056
-210.696
-237.239
-267.074
-300.304
-336.754
-376.285
-418.484
-462.824
-508.533
-554.546
-599.672
-642.507
-681.492
-715.008
-741.586
-759.752
-768.319
-765.544
-750.145
-720.991
-677.253
-619.784
-549.331
-471.941
-409.894
-379.665
-381.164
-411.393
-446.002
-476.049
-495.606
-501.883
-500.406
-494.268
-486.993
-481.694
-479.099
-54.5116
-60.9595
-63.6234
-69.0852
-73.6919
-81.2113
-87.9932
-97.7854
-107.984
-120.513
-135.223
-152.76
-173.291
-197.012
-224.112
-254.474
-288.777
-327.172
-369.485
-415.613
-464.943
-516.626
-569.604
-622.622
-674.239
-722.632
-765.619
-801.202
-827.596
-843.48
-846.943
-835.974
-809.395
-764.648
-699.055
-611.093
-519.207
-437.401
-387.827
-375.419
-401.756
-441.871
-475.777
-497.501
-504.242
-503.372
-498.259
-492.244
-488.473
-487.023
-50.7828
-52.869
-57.6655
-59.8937
-65.3088
-72.4925
-78.5334
-87.5178
-96.8455
-108.659
-122.299
-138.944
-158.455
-181.477
-208.22
-238.973
-273.935
-313.45
-357.757
-407.334
-461.42
-519.091
-579.263
-640.754
-702.083
-761.005
-815.004
-861.517
-898.285
-924.386
-936.983
-933.311
-912.516
-868.561
-796.312
-702.597
-604.923
-516.927
-453.538
-430.802
-435.108
-458.107
-480.633
-494.755
-499.165
-497.068
-493.722
-490.282
-489.196
-489.687
-64.3095
-44.8284
-52.5451
-51.0181
-58.0858
-64.0783
-69.9889
-77.6341
-85.9227
-97.5154
-110.136
-125.494
-143.902
-165.825
-192.124
-222.475
-257.408
-297.614
-343.137
-395.272
-453.375
-516.542
-583.907
-654.184
-725.806
-795.388
-860.642
-920.279
-970.374
-1008.18
-1032.53
-1038.11
-1022.03
-984.53
-913.819
-824.467
-725.448
-644.167
-584.125
-542.763
-521.534
-512.955
-512.009
-509.337
-502.697
-495.161
-489.054
-486.776
-487.556
-489.467
63.8926
59.1908
56.7988
55.3095
54.5645
54.2578
54.2321
54.5112
55.1491
56.0611
57.2278
58.7179
60.6055
62.8274
65.4326
68.4744
71.8493
75.6226
79.7725
84.2681
89.1318
94.3425
99.8747
105.722
111.782
117.946
124.11
130.382
136.736
142.904
148.629
153.828
158.369
162.039
164.57
165.678
165
162.094
156.592
148.068
136.011
119.907
99.0542
72.7772
40.4386
1.16962
-45.1389
-99.0795
-164.265
-231.175
60.6279
55.7187
53.8557
52.1439
51.0296
50.4188
50.1112
50.099
50.42
51.0013
51.8785
53.0351
54.5211
56.3171
58.5166
61.2288
64.1746
67.4674
71.063
74.9442
79.1495
83.634
88.3784
93.3505
98.4818
103.695
108.819
113.639
118.338
122.945
127.069
130.412
132.908
134.381
134.519
133.016
129.511
123.558
114.753
102.669
86.7716
66.5872
41.2959
10.2949
-27.0511
-71.6316
-123.542
-182.919
-251.995
-321.518
56.1559
50.8781
49.8023
47.9658
46.6548
45.8182
45.2765
45.0273
45.1134
45.4706
46.1215
47.079
48.3313
49.8843
51.6707
53.7536
56.3052
59.1069
62.1904
65.5254
69.0796
72.8623
76.8112
80.8802
85.0133
89.1145
93.1177
96.7996
100.066
102.969
105.248
106.626
106.975
106.089
103.614
99.2825
92.7568
83.5614
71.298
55.5151
35.663
11.2046
-18.4621
-53.9439
-95.8654
-145.065
-201.699
-265.084
-335.203
-402.977
50.8046
45.1707
44.7623
42.673
41.4208
40.4688
39.7173
39.2433
39.1194
39.2901
39.7461
40.4276
41.3568
42.5981
44.1853
45.875
47.8621
50.148
52.7093
55.4593
58.3754
61.4284
64.5539
67.6986
70.7983
73.8201
76.6143
78.8973
80.628
81.8173
82.2783
81.6645
79.7823
76.439
71.3134
64.0827
54.4332
41.9559
26.2081
6.73596
-16.9661
-45.4143
-79.0648
-118.45
-164.122
-216.84
-276.705
-342.234
-411.822
-475.65
44.6947
38.8687
38.8188
36.3129
35.0954
34.0315
33.1526
32.5289
32.2224
32.1819
32.4305
32.9106
33.6105
34.5207
35.5566
36.9312
38.4501
40.1662
42.0924
44.1853
46.3842
48.6496
50.8832
53.0306
55.0012
56.735
58.2134
59.2295
59.5135
58.9592
57.4476
54.7779
50.7053
44.9405
37.179
27.1422
14.4971
-1.15697
-20.1993
-43.0462
-70.1682
-101.996
-138.877
-181.219
-229.473
-284.268
-345.581
-411.621
-479.538
-537.926
38.0187
31.8235
31.8113
28.965
27.7459
26.5411
25.5322
24.7974
24.2778
23.9855
23.9269
24.0846
24.4897
25.0847
25.8569
26.6118
27.5726
28.6656
29.8728
31.1952
32.5824
33.9542
35.2297
36.3457
37.1924
37.7116
37.7711
37.2382
35.9719
33.7829
30.4382
25.7312
19.4725
11.4004
1.18996
-11.4646
-26.8614
-45.323
-67.207
-92.8757
-122.685
-156.976
-196.041
-240.176
-289.681
-345.027
-406.309
-471.656
-536.645
-588.045
30.3882
24.0117
23.854
20.6171
19.3724
18.0352
16.8779
15.9561
15.2512
14.7185
14.359
14.1397
14.0473
14.0594
14.2919
14.6109
14.941
15.3459
15.7865
16.2622
16.72
17.1063
17.3404
17.337
16.9796
16.1721
14.9055
12.9752
10.185
6.29864
1.11055
-5.51519
-13.7998
-24.0213
-36.4507
-51.3518
-69.0144
-89.7551
-113.832
-141.517
-173.114
-208.874
-248.994
-293.688
-343.2
-397.892
-457.698
-520.851
-581.631
-624.471
21.7358
15.4886
15.0764
11.5531
10.1308
8.5635
7.2028
6.02902
4.99139
4.17797
3.35581
2.65199
2.05685
1.54902
1.02025
0.614657
0.308825
-0.0170789
-0.38068
-0.799239
-1.33451
-1.99775
-2.86753
-4.00353
-5.51704
-7.53377
-10.2169
-13.6717
-18.0348
-23.4649
-30.2316
-38.5979
-48.7136
-60.7685
-75.0225
-91.7277
-111.127
-133.444
-158.92
-187.779
-220.206
-256.372
-296.428
-340.532
-388.898
-441.906
-499.261
-558.9
-614.227
-647.519
11.9869
6.00503
5.32963
1.71571
0.124928
-1.7446
-3.36413
-4.82084
-6.20513
-7.54538
-8.8282
-10.0784
-11.3704
-12.6352
-13.7864
-14.9321
-16.152
-17.3434
-18.5906
-19.9854
-21.5212
-23.2767
-25.2717
-27.5917
-30.3444
-33.6413
-37.5916
-42.3353
-48.0624
-54.9909
-63.2819
-73.0749
-84.6067
-98.0965
-113.725
-131.673
-152.132
-175.33
-201.425
-230.558
-262.891
-298.535
-337.561
-380.074
-426.273
-476.59
-530.784
-585.835
-634.517
-658.22
0.781224
-4.67202
-5.53763
-8.9791
-10.6284
-12.8441
-14.841
-16.6774
-18.4991
-20.3563
-22.2848
-24.2334
-26.1806
-28.1438
-30.2262
-32.2723
-34.3792
-36.5625
-38.8397
-41.2228
-43.8199
-46.6365
-49.7383
-53.1699
-57.0287
-61.4588
-66.5921
-72.6255
-79.6393
-87.7347
-97.1447
-108.097
-120.711
-135.141
-151.575
-170.177
-191.1
-214.457
-240.389
-269.031
-300.451
-334.702
-371.83
-411.905
-455.087
-501.686
-551.674
-601.931
-644.554
-661.114
-11.5758
-16.212
-17.1865
-20.364
-22.038
-24.5567
-26.965
-29.3492
-31.7521
-34.2256
-36.8089
-39.481
-42.3051
-45.1854
-48.0614
-51.1319
-54.2271
-57.4681
-60.7975
-64.2678
-67.8959
-71.7623
-75.9176
-80.4208
-85.3645
-90.8726
-97.0509
-104.022
-111.952
-121.016
-131.321
-142.969
-156.165
-171.074
-187.813
-206.484
-227.186
-250.065
-275.193
-302.611
-332.384
-364.547
-399.087
-435.974
-475.273
-517.524
-562.199
-606.966
-644.584
-658.358
-24.3867
-28.2237
-29.2525
-32.289
-34.0724
-36.872
-39.6232
-42.6196
-45.7776
-48.9882
-52.3377
-55.8642
-59.4245
-63.2592
-67.322
-71.3645
-75.5534
-79.8873
-84.3124
-88.8614
-93.5612
-98.4568
-103.6
-109.07
-114.915
-121.249
-128.214
-135.958
-144.577
-154.164
-164.889
-176.923
-190.332
-205.22
-221.714
-239.916
-259.918
-281.74
-305.433
-331.068
-358.634
-388.076
-419.363
-452.465
-487.341
-524.357
-562.268
-599.056
-628.519
-642.128
-37.3006
-40.5501
-41.5158
-44.5271
-46.6389
-49.7814
-52.8697
-56.3236
-60.077
-64.2511
-68.5453
-72.9704
-77.6996
-82.3915
-87.3198
-92.6246
-97.9381
-103.394
-108.988
-114.666
-120.432
-126.315
-132.397
-138.728
-145.381
-152.437
-159.994
-168.161
-177.058
-186.85
-197.663
-209.552
-222.664
-237.112
-252.956
-270.242
-288.994
-309.289
-331.14
-354.503
-379.356
-405.641
-433.217
-461.898
-492.068
-522.966
-552.801
-578.05
-593.793
-605.202
-50.0766
-52.7551
-53.6464
-56.7677
-59.2523
-62.7819
-66.4944
-70.5308
-74.8815
-79.6772
-84.9742
-90.47
-96.2208
-102.407
-108.497
-114.746
-121.306
-127.91
-134.619
-141.434
-148.259
-155.155
-162.118
-169.192
-176.433
-183.931
-191.783
-200.113
-209.054
-218.665
-229.092
-240.517
-252.991
-266.573
-281.319
-297.274
-314.499
-332.937
-352.54
-373.316
-395.219
-418.065
-441.54
-465.685
-490.322
-514.37
-536.005
-551.529
-557.05
-562.772
-62.3731
-64.47
-65.3204
-68.756
-71.4631
-75.4324
-79.5651
-84.3524
-89.7726
-95.3973
-101.444
-108.12
-114.989
-122.108
-129.734
-137.339
-145.049
-152.89
-160.897
-168.814
-176.753
-184.625
-192.429
-200.175
-207.921
-215.744
-223.727
-231.946
-240.484
-249.583
-259.366
-269.869
-281.237
-293.578
-306.944
-321.333
-336.683
-353.005
-370.269
-388.34
-407.096
-426.434
-446.126
-465.96
-485.13
-502.655
-516.916
-526.143
-532.196
-534.45
-73.4811
-75.047
-76.0882
-79.7379
-82.7709
-87.399
-92.125
-97.5013
-103.712
-110.623
-117.737
-125.315
-133.571
-142.099
-150.842
-159.942
-169.066
-178.222
-187.421
-196.63
-205.734
-214.61
-223.254
-231.651
-239.805
-247.747
-255.57
-263.428
-271.449
-279.669
-288.293
-297.559
-307.567
-318.399
-330.082
-342.617
-356.037
-370.239
-385.084
-400.491
-416.372
-432.534
-448.778
-464.628
-479.339
-492.054
-501.367
-506.058
-511.317
-513.061
-82.9216
-83.6342
-85.5067
-89.1869
-92.5635
-97.8666
-103.389
-109.843
-116.716
-124.351
-132.941
-141.86
-151.075
-160.977
-171.31
-181.91
-192.627
-203.375
-214.009
-224.533
-234.854
-244.869
-254.458
-263.556
-272.114
-280.173
-287.818
-295.098
-302.125
-309.188
-316.489
-324.147
-332.371
-341.322
-351.117
-361.781
-373.173
-385.212
-397.85
-410.971
-424.359
-437.672
-450.836
-463.556
-474.938
-483.689
-488.864
-493.225
-495.182
-497.205
-90.4703
-90.2278
-92.8087
-96.6083
-100.723
-106.494
-112.796
-120.129
-128.115
-136.804
-146.275
-156.683
-167.661
-178.949
-190.745
-202.952
-215.437
-227.863
-240.218
-252.314
-264.064
-275.366
-286.033
-295.93
-304.96
-313.097
-320.394
-327.007
-333.094
-338.741
-344.198
-349.859
-355.997
-362.861
-370.565
-379.108
-388.521
-398.692
-409.436
-420.631
-431.939
-442.966
-453.607
-463.584
-472.096
-478.035
-481.057
-483.584
-485.152
-486.466
-95.063
-95.1437
-98.1647
-101.997
-106.829
-113.069
-120.03
-128.319
-137.465
-147.364
-158.025
-169.398
-181.743
-194.935
-208.517
-222.438
-236.803
-251.322
-265.605
-279.584
-293.036
-305.855
-317.866
-328.832
-338.611
-347.084
-354.239
-360.159
-364.94
-368.865
-372.367
-375.713
-379.324
-383.552
-388.72
-395.07
-402.528
-410.937
-420.174
-429.971
-439.619
-448.69
-457.127
-464.505
-470.065
-473.44
-476.567
-477.534
-478.768
-479.431
-96.8713
-97.4666
-101.893
-105.423
-110.877
-117.551
-125.004
-133.894
-144.037
-155.133
-167.096
-180.157
-194.02
-208.605
-223.979
-240.025
-256.412
-273.024
-289.624
-305.884
-321.518
-336.311
-350.035
-362.414
-373.231
-382.26
-389.366
-394.699
-398.447
-400.72
-401.812
-402.294
-402.755
-403.883
-406.191
-409.872
-415.093
-421.938
-430.266
-438.971
-447.17
-454.957
-461.464
-465.949
-468.303
-470.479
-471.947
-473.199
-474.309
-474.729
-96.0316
-98.0186
-102.284
-106.925
-112.864
-120.06
-128.059
-137.253
-147.946
-160.077
-173.266
-187.559
-203.063
-219.486
-236.796
-254.922
-273.637
-292.702
-311.812
-330.687
-348.95
-366.219
-382.139
-396.478
-408.894
-419.093
-426.874
-432.057
-434.653
-434.978
-433.603
-430.931
-427.76
-424.931
-423.232
-423.496
-426.142
-431.361
-438.513
-446.312
-454.569
-461.776
-466.198
-467.715
-468.081
-468.385
-469.284
-470.503
-471.594
-472.032
-92.9535
-96.412
-100.617
-106.001
-112.359
-119.812
-128.39
-138.623
-149.546
-161.975
-176.468
-192.116
-208.859
-226.967
-246.336
-266.695
-287.859
-309.615
-331.639
-353.544
-374.903
-395.233
-414.096
-431.067
-445.731
-457.682
-466.519
-471.942
-474.056
-473.114
-469.156
-462.854
-455.1
-447.166
-440.588
-436.352
-435.025
-437.48
-443.42
-452.06
-461.231
-467.904
-470.899
-470.886
-469.9
-469.098
-469.062
-469.545
-470.169
-470.668
-89.1636
-93.6041
-97.3209
-102.903
-109.385
-117.17
-126.171
-136.803
-148.569
-161.459
-176.314
-192.912
-211.094
-230.999
-252.351
-274.845
-298.549
-323.209
-348.418
-373.767
-398.746
-422.775
-445.299
-465.715
-483.399
-497.968
-508.928
-515.741
-518.082
-515.907
-509.486
-499.456
-486.791
-472.877
-459.341
-448.282
-440.914
-439.66
-444.734
-454.378
-464.829
-472.111
-475.25
-475.572
-473.842
-471.942
-470.175
-468.915
-468.335
-468.468
-84.7633
-90.4286
-92.7289
-98.0636
-104.269
-112.282
-121.262
-131.919
-144.196
-158.251
-173.572
-190.545
-209.902
-231.09
-254.147
-278.964
-305.257
-332.908
-361.508
-390.629
-419.71
-448.09
-475.048
-499.813
-521.65
-539.912
-553.88
-562.857
-566.398
-564.186
-556.226
-542.878
-524.795
-503.283
-481.01
-461.055
-445.167
-436.887
-438.754
-449.794
-463.299
-472.671
-477.571
-478.079
-476.056
-472.94
-469.514
-466.655
-465.011
-464.516
-78.6347
-84.7566
-86.332
-92.5275
-97.6175
-105.678
-114.438
-124.941
-137.258
-151.339
-167.242
-185.141
-205.3
-227.507
-251.944
-278.678
-307.575
-338.188
-370.293
-403.441
-437.043
-470.356
-502.532
-532.647
-559.717
-582.778
-601.051
-613.778
-619.949
-618.951
-610.352
-594.15
-570.968
-542.265
-509.895
-476.905
-447.154
-427.781
-424.918
-435.845
-453.366
-466.495
-473.572
-475.951
-474.489
-470.954
-466.75
-462.88
-460.358
-458.915
-69.1579
-77.3075
-78.6653
-85.4897
-89.9739
-97.8802
-106.106
-116.43
-128.243
-142.229
-158.384
-176.703
-197.102
-219.948
-245.761
-274.282
-305.27
-338.701
-374.282
-411.565
-449.966
-488.695
-526.794
-563.153
-596.605
-625.933
-650.049
-667.803
-677.845
-679.561
-672.368
-655.447
-628.629
-592.424
-548.52
-500.206
-452.929
-417.898
-404.177
-411.618
-431.699
-452.725
-465.282
-472.605
-474.563
-472.376
-468.077
-463.273
-459.769
-457.469
-60.8071
-68.3695
-69.8344
-76.8701
-81.7487
-89.3935
-96.9248
-106.891
-117.816
-131.297
-146.999
-165.183
-185.951
-209.487
-235.77
-265.394
-298.267
-334.255
-373.155
-414.529
-457.854
-502.319
-546.847
-590.279
-631.281
-668.35
-699.913
-724.338
-740.467
-747.186
-743.085
-727.153
-698.41
-656.626
-603.256
-539.985
-471.598
-413.394
-384.491
-385.28
-406.561
-438.833
-463.4
-477.842
-482.801
-480.676
-475.658
-469.794
-464.995
-461.917
-53.8424
-60.3143
-62.9191
-68.3513
-72.9409
-80.4341
-87.2411
-96.9682
-107.208
-119.646
-134.383
-151.872
-172.33
-195.93
-222.844
-253.023
-286.976
-324.971
-366.719
-412.023
-460.295
-510.682
-562.096
-613.241
-662.746
-708.915
-749.591
-782.688
-806.605
-819.925
-821.309
-808.997
-782.611
-740.147
-678.504
-598.649
-511.001
-435.119
-386.481
-371.073
-387.531
-425.604
-459.627
-481.359
-490.68
-489.54
-483.82
-477.677
-473.104
-470.97
-50.1046
-52.2812
-57.0052
-59.2468
-64.5956
-71.7794
-77.8263
-86.7912
-96.1325
-107.903
-121.578
-138.186
-157.629
-180.525
-207.176
-237.758
-272.329
-311.485
-355.299
-404.101
-457.124
-513.436
-571.93
-631.381
-690.298
-746.605
-797.877
-841.7
-875.644
-898.36
-908.159
-902.132
-879.733
-841.844
-769.448
-678.672
-579.471
-495.453
-430.922
-404.236
-409.036
-431.788
-458.597
-478.142
-486.738
-486.332
-483.03
-478.925
-476.346
-475.814
-63.6044
-44.2766
-51.959
-50.4506
-57.4176
-63.4142
-69.3375
-77.0377
-85.3186
-96.8589
-109.468
-124.776
-143.166
-165.038
-191.236
-221.374
-255.985
-295.795
-340.887
-392.292
-449.409
-511.197
-576.783
-644.85
-713.791
-780.466
-842.634
-898.834
-945.694
-979.779
-999.536
-1003.43
-983.729
-947.46
-880.242
-786.585
-691.872
-600.559
-533.032
-491.299
-474.052
-473.839
-481.612
-486.677
-486.463
-482.776
-478.582
-475.799
-475.684
-476.804
-54.2706
-35.8759
-44.3108
-43.8035
-50.7565
-55.3959
-62.2773
-69.1624
-76.99
-87.664
-99.5505
-113.795
-131.355
-152.484
-177.227
-206.745
-242.187
-283.102
-330.023
-383.914
-445.194
-513.862
-588.817
-668.145
-748.998
-828.692
-904.432
-973.772
-1034.47
-1083.1
-1117.65
-1133.83
-1124.74
-1071.15
-995.486
-905.398
-813.176
-733.936
-668.995
-615.84
-577.663
-550.575
-529.84
-512.206
-496.006
-482.493
-474.496
-473.084
-474.962
-476.79
-43.2434
-37.3671
-41.5426
-44.6823
-48.4759
-52.4886
-58.0786
-65.0312
-73.038
-83.0397
-94.8953
-109.324
-127.113
-149.535
-176.249
-208.582
-247.197
-292.07
-344.448
-405.429
-475.363
-554.201
-640.067
-732.069
-827.208
-921.111
-1009.8
-1090.53
-1159.47
-1215.14
-1248
-1250.55
-1217
-1160.5
-1085.11
-1001.18
-915.324
-838.507
-773.044
-716.987
-668.048
-625.026
-586.317
-551.202
-519.49
-494.52
-479.467
-474.962
-477.483
-479.68
-35.1376
-36.878
-39.0362
-42.6592
-46.3116
-50.2342
-55.7079
-62.986
-71.5087
-81.3009
-93.8851
-109.559
-129.636
-155.278
-186.381
-223.095
-266.454
-318.75
-380.996
-453.029
-534.417
-625.269
-725.716
-833.722
-944.263
-1049.74
-1147.22
-1234.76
-1309.55
-1358.33
-1373.91
-1357.69
-1317.19
-1256.75
-1183.26
-1103.51
-1025.55
-949.376
-877.561
-810.995
-749.724
-693.336
-641.549
-594.444
-552.675
-518.049
-493.935
-482.395
-483.107
-486.433
-29.7791
-32.9597
-35.5188
-38.7991
-42.5735
-46.6424
-52.2233
-59.8761
-69.0146
-79.8348
-93.3894
-110.82
-133.573
-162.269
-197.289
-239.65
-290.73
-352.581
-424.927
-508.749
-605.573
-715.609
-836.403
-961.999
-1084.52
-1199.93
-1306.26
-1401.77
-1470.89
-1502.47
-1503.71
-1477.58
-1430.38
-1366.38
-1292.59
-1212.63
-1130.19
-1047.63
-967.641
-891.325
-819.379
-752.45
-691.093
-635.837
-587.582
-547.173
-516.266
-497.204
-490.836
-497.535
-24.9004
-27.3708
-30.1469
-33.1638
-36.8101
-41.23
-46.5198
-53.9051
-63.4398
-75.3605
-90.0793
-109.289
-134.058
-165.77
-205.655
-254.797
-313.884
-384.458
-468.735
-569.95
-688.863
-822.026
-963.203
-1104.53
-1240.89
-1369.23
-1486.3
-1576.41
-1627.57
-1646.49
-1635.44
-1599.99
-1544.34
-1475.4
-1395.12
-1308.94
-1219.07
-1128.75
-1040.05
-954.721
-874.07
-799.011
-730.672
-669.961
-617.631
-574.201
-539.914
-515.889
-505.533
-514.124
-19.3339
-21.3589
-23.2763
-25.9123
-29.1236
-32.8193
-37.5266
-44.7119
-54.5335
-66.8235
-82.4267
-102.823
-129.682
-164.864
-209.885
-265.235
-332.131
-414.074
-515.796
-639.994
-783.907
-940.534
-1101.11
-1260.4
-1413.95
-1553.66
-1665.66
-1737.97
-1774.93
-1779.84
-1756.5
-1709.72
-1645.23
-1567.11
-1478.57
-1383.35
-1285.59
-1187.12
-1090.64
-997.8
-910.192
-829.254
-756.112
-691.831
-637.233
-592.514
-557.62
-533.151
-522.171
-523.823
-12.8548
-14.1661
-15.2338
-16.5225
-18.7572
-21.9227
-26.3241
-32.7145
-41.7709
-53.4266
-68.925
-90.3277
-119.284
-158.066
-207.584
-269.623
-347.601
-445.964
-569.547
-718.94
-888.783
-1069.27
-1251.95
-1430.59
-1595.06
-1727.19
-1821.6
-1879.05
-1901.18
-1891.56
-1855.43
-1797.33
-1721.5
-1632.84
-1535.09
-1431.58
-1325.78
-1220.25
-1116.98