/*--------------------------------*- C++ -*----------------------------------*\
| =========                 |                                                 |
| \\      /  F ield         | OpenFOAM: The Open Source CFD Toolbox           |
|  \\    /   O peration     | Version:  v1912                                 |
|   \\  /    A nd           | Website:  www.openfoam.com                      |
|    \\/     M anipulation  |                                                 |
\*---------------------------------------------------------------------------*/
FoamFile
{
    version     2.0;
    format      ascii;
    class       surfaceScalarField;
    location    "0.11";
    object      phi;
}
// * * * * * * * * * * * * * * * * * * * * * * * * * * * * * * * * * * * * * //

dimensions      [0 3 -1 0 0 0 0];
oriented        oriented;


internalField   nonuniform List<scalar> 
13060
(
0.00551401
0.988679
-0.994193
0.00714012
0.946038
-0.947664
0.00809085
0.900528
-0.901479
0.00887282
0.857195
-0.857977
0.0094115
0.816579
-0.817118
0.00984982
0.778718
-0.779156
0.0101952
0.742251
-0.742596
0.0104497
0.707633
-0.707887
0.0107656
0.674308
-0.674624
0.0109203
0.642512
-0.642667
0.0110878
0.612087
-0.612254
0.0112479
0.582988
-0.583148
0.0112838
0.55535
-0.555385
0.0111081
0.528917
-0.528742
0.0108384
0.50362
-0.50335
0.0106928
0.479271
-0.479125
0.0105338
0.456045
-0.455886
0.0104291
0.433644
-0.433539
0.0103792
0.412346
-0.412296
0.0102977
0.392037
-0.391956
0.0102173
0.37259
-0.372509
0.0100953
0.354104
-0.353982
0.0099423
0.336426
-0.336273
0.00976631
0.31962
-0.319444
0.00958853
0.303588
-0.30341
0.00956078
0.288174
-0.288146
0.00951588
0.273564
-0.273519
0.00929176
0.259826
-0.259602
0.00884133
0.246787
-0.246337
0.00833589
0.234311
-0.233806
0.00789511
0.222472
-0.222031
0.00743363
0.211357
-0.210895
0.00690105
0.200843
-0.200311
0.00632968
0.190834
-0.190262
0.00571884
0.181395
-0.180784
0.00505219
0.172526
-0.17186
0.00434415
0.16418
-0.163472
0.00364569
0.156339
-0.15564
0.00294211
0.149008
-0.148304
0.00220399
0.142143
-0.141405
0.00146238
0.135667
-0.134926
0.000742352
0.12961
-0.12889
6.6244e-05
0.123921
-0.123245
-0.000643615
0.11866
-0.117951
-0.00130633
0.113671
-0.113008
-0.00186381
0.109109
-0.108551
-0.00250838
0.104457
-0.103812
-0.00284673
0.100777
-0.100439
-0.00223656
0.0920717
-0.0926819
0.0626718
-0.0649083
0.00587152
0.982807
0.00692299
0.944986
0.00721207
0.900239
0.00705084
0.857357
0.00686409
0.816766
0.00672696
0.778855
0.00653614
0.742442
0.0063368
0.707832
0.006069
0.674576
0.00576511
0.642816
0.00553135
0.61232
0.00528715
0.583232
0.00530767
0.555329
0.00551441
0.528711
0.00578306
0.503351
0.00601726
0.479036
0.00617218
0.45589
0.00616198
0.433654
0.00609081
0.412417
0.00595675
0.392171
0.00577995
0.372767
0.00558943
0.354294
0.00536346
0.336652
0.00510077
0.319882
0.00475396
0.303935
0.00422745
0.2887
0.00360086
0.27419
0.00311558
0.260311
0.00284738
0.247056
0.00256728
0.234591
0.00211344
0.222925
0.00162981
0.21184
0.00118914
0.201284
0.000731423
0.191291
0.000255081
0.181871
-0.000228578
0.17301
-0.000734934
0.164686
-0.00126543
0.156869
-0.00180402
0.149546
-0.00231733
0.142656
-0.00280702
0.136157
-0.00325651
0.130059
-0.00367247
0.124337
-0.00400545
0.118993
-0.00428366
0.113949
-0.00446232
0.109288
-0.0045888
0.104583
-0.00413306
0.100321
-0.00288257
0.0908212
0.0597892
0.0054537
0.977353
0.00587236
0.944568
0.00576616
0.900345
0.00504676
0.858076
0.0043638
0.817449
0.00382032
0.779399
0.00346695
0.742795
0.00315907
0.70814
0.00292457
0.67481
0.00266559
0.643075
0.00239401
0.612592
0.00210979
0.583517
0.00156679
0.555872
0.000858828
0.529419
0.00034945
0.503861
-0.000115429
0.479501
-0.000515226
0.45629
-0.000814656
0.433953
-0.00108374
0.412686
-0.00134773
0.392435
-0.00162335
0.373042
-0.0019019
0.354573
-0.0021832
0.336933
-0.00244995
0.320149
-0.00267125
0.304156
-0.00272186
0.288751
-0.00270299
0.274172
-0.0029404
0.260548
-0.00340273
0.247518
-0.00378038
0.234969
-0.00400968
0.223155
-0.00429971
0.21213
-0.0046648
0.201649
-0.00501472
0.191641
-0.00535496
0.182211
-0.00570802
0.173363
-0.00605805
0.165036
-0.00636399
0.157175
-0.00663623
0.149818
-0.00688951
0.142909
-0.00709414
0.136362
-0.00723973
0.130205
-0.00730719
0.124405
-0.00726322
0.118949
-0.00710124
0.113787
-0.00682131
0.109008
-0.00649743
0.104259
-0.00550106
0.0993249
-0.00357715
0.0888973
0.056212
0.0045481
0.972805
0.00414803
0.944968
0.00341082
0.901083
0.00250777
0.858979
0.00148764
0.818469
0.000559201
0.780327
-0.000376216
0.74373
-0.00121101
0.708975
-0.00193709
0.675536
-0.00267231
0.64381
-0.00333474
0.613254
-0.00387563
0.584057
-0.00405906
0.556055
-0.00408777
0.529447
-0.00428979
0.504063
-0.00452719
0.479739
-0.00471644
0.456479
-0.00500364
0.434241
-0.00528693
0.41297
-0.00560106
0.392749
-0.00594459
0.373386
-0.00627901
0.354907
-0.00661637
0.337271
-0.00696293
0.320496
-0.00734669
0.30454
-0.00789931
0.289303
-0.00852286
0.274795
-0.00895225
0.260978
-0.00921115
0.247777
-0.00951584
0.235274
-0.00989909
0.223538
-0.0102041
0.212436
-0.0104407
0.201885
-0.0106839
0.191885
-0.0109164
0.182444
-0.0110958
0.173542
-0.0112065
0.165147
-0.0113126
0.157281
-0.0113812
0.149887
-0.0113653
0.142893
-0.0112732
0.13627
-0.0110912
0.130023
-0.0108101
0.124124
-0.010421
0.11856
-0.00991244
0.113279
-0.00921732
0.108313
-0.00839734
0.103439
-0.00693372
0.0978613
-0.00432795
0.0862915
0.0518841
0.00328862
0.969517
0.00268938
0.945567
0.00126382
0.902508
9.40487e-05
0.860149
-0.00107737
0.81964
-0.00216527
0.781415
-0.00321515
0.74478
-0.00416101
0.70992
-0.00495624
0.676332
-0.00569255
0.644547
-0.00635909
0.613921
-0.00713871
0.584837
-0.00821462
0.557131
-0.00925182
0.530485
-0.0100793
0.50489
-0.0108151
0.480474
-0.0115428
0.457207
-0.0121492
0.434847
-0.0126968
0.413517
-0.0131643
0.393217
-0.0136078
0.373829
-0.0140245
0.355324
-0.0144202
0.337666
-0.0147691
0.320845
-0.0150367
0.304807
-0.0151095
0.289376
-0.0150642
0.27475
-0.0151958
0.261109
-0.0155286
0.24811
-0.0157819
0.235527
-0.0158901
0.223646
-0.0160349
0.21258
-0.0161985
0.202049
-0.0162854
0.191971
-0.0163179
0.182476
-0.0163307
0.173555
-0.0163091
0.165125
-0.0161834
0.157156
-0.0159697
0.149673
-0.0156869
0.142611
-0.0153083
0.135891
-0.0148217
0.129536
-0.0142159
0.123518
-0.0134811
0.117826
-0.0126048
0.112402
-0.0115384
0.107246
-0.0103691
0.10227
-0.00847985
0.095972
-0.00510586
0.0829175
0.0467782
0.00249774
0.967019
0.00096486
0.9471
-0.00101275
0.904486
-0.00254298
0.861679
-0.00440982
0.821507
-0.00597304
0.782978
-0.00745121
0.746258
-0.00882972
0.711299
-0.0101106
0.677613
-0.011315
0.645751
-0.0123275
0.614933
-0.0131961
0.585706
-0.0136013
0.557537
-0.0140688
0.530952
-0.0146562
0.505478
-0.015154
0.480972
-0.015622
0.457675
-0.0161662
0.435391
-0.0166925
0.414043
-0.0172167
0.393741
-0.017727
0.37434
-0.0181936
0.355791
-0.0186261
0.338099
-0.0190493
0.321268
-0.0194842
0.305242
-0.0200771
0.289969
-0.0207256
0.275398
-0.0211171
0.261501
-0.0212791
0.248272
-0.0214759
0.235724
-0.0217212
0.223891
-0.0218121
0.212671
-0.0217924
0.202029
-0.0217533
0.191932
-0.0216593
0.182382
-0.021465
0.173361
-0.0211677
0.164828
-0.0208233
0.156811
-0.0203985
0.149249
-0.0198488
0.142061
-0.0191886
0.135231
-0.0184121
0.12876
-0.0175123
0.122618
-0.0164763
0.11679
-0.0153377
0.111264
-0.0141149
0.106023
-0.012499
0.100654
-0.0100655
0.0935385
-0.00589349
0.0787455
0.0408847
0.00171287
0.965306
-0.00103255
0.949845
-0.00356781
0.907021
-0.00539729
0.863508
-0.00719539
0.823305
-0.00889663
0.784679
-0.0104213
0.747783
-0.0116477
0.712525
-0.0129631
0.678928
-0.014212
0.647
-0.0154899
0.616211
-0.016783
0.586999
-0.0182575
0.559011
-0.0194941
0.532189
-0.0205557
0.506539
-0.0216831
0.4821
-0.0227162
0.458708
-0.0236144
0.43629
-0.0244271
0.414856
-0.0251084
0.394422
-0.0257283
0.374959
-0.0262865
0.356349
-0.0267773
0.33859
-0.0271805
0.321671
-0.0274563
0.305518
-0.0274826
0.289995
-0.027367
0.275283
-0.0273904
0.261524
-0.0275502
0.248432
-0.0275854
0.235759
-0.027483
0.223789
-0.0274148
0.212603
-0.0273109
0.201925
-0.0270787
0.1917
-0.0267517
0.182056
-0.0263709
0.17298
-0.0259317
0.164389
-0.0253583
0.156238
-0.0246573
0.148548
-0.0238584
0.141262
-0.0229438
0.134316
-0.0219084
0.127724
-0.0207493
0.121459
-0.0194665
0.115507
-0.0180397
0.109837
-0.01661
0.104594
-0.0145828
0.0986272
-0.0116662
0.0906219
-0.00665073
0.07373
0.034234
0.000844766
0.964461
-0.00277826
0.953468
-0.00577058
0.910013
-0.00823106
0.865969
-0.0106991
0.825773
-0.0128476
0.786828
-0.0148186
0.749754
-0.0166107
0.714317
-0.01833
0.680647
-0.0197848
0.648455
-0.0211308
0.617557
-0.0222456
0.588114
-0.0231371
0.559903
-0.0240515
0.533103
-0.0250036
0.507491
-0.0257361
0.482832
-0.0264406
0.459413
-0.0272061
0.437055
-0.0279465
0.415596
-0.0286737
0.39515
-0.0293501
0.375636
-0.0299524
0.356951
-0.0304836
0.339121
-0.0309665
0.322154
-0.0314336
0.305985
-0.0320468
0.290608
-0.0326929
0.275929
-0.0330386
0.26187
-0.0330907
0.248484
-0.0331139
0.235782
-0.0331228
0.223798
-0.0329294
0.21241
-0.0325956
0.201592
-0.0322179
0.191323
-0.0317636
0.181601
-0.0311752
0.172391
-0.0304446
0.163658
-0.0296448
0.155438
-0.028756
0.147659
-0.0277303
0.140236
-0.0265869
0.133173
-0.0253324
0.12647
-0.0239756
0.120102
-0.022518
0.114049
-0.020974
0.108293
-0.0192119
0.102832
-0.0168634
0.0962787
-0.0133428
0.0871013
-0.00737525
0.0677625
0.0268588
9.89609e-06
0.964451
-0.00357579
0.957054
-0.00699975
0.913437
-0.0102511
0.86922
-0.0126955
0.828218
-0.0148177
0.78895
-0.0169917
0.751928
-0.0189851
0.716311
-0.0209437
0.682606
-0.0225659
0.650077
-0.0243169
0.619308
-0.0260122
0.589809
-0.0276899
0.56158
-0.02924
0.534653
-0.0306637
0.508915
-0.032201
0.484369
-0.0335557
0.460767
-0.0347393
0.438239
-0.0357908
0.416648
-0.0366715
0.39603
-0.0374538
0.376418
-0.0381476
0.357645
-0.0387386
0.339712
-0.0391974
0.322613
-0.0394637
0.306251
-0.0394261
0.290571
-0.0391775
0.27568
-0.0390383
0.261731
-0.039021
0.248466
-0.0388546
0.235616
-0.0385067
0.22345
-0.0381615
0.212064
-0.0377487
0.201179
-0.037176
0.19075
-0.0364748
0.1809
-0.0357005
0.171617
-0.0348645
0.162822
-0.0338849
0.154458
-0.0327594
0.146533
-0.0315329
0.13901
-0.0302013
0.131841
-0.0287637
0.125032
-0.0272088
0.118547
-0.0255546
0.112395
-0.0239537
0.106692
-0.0218473
0.100725
-0.0191369
0.0935683
-0.0148604
0.0828247
-0.00806146
0.0609635
0.0187973
-0.000391077
0.964842
-0.00438464
0.961048
-0.00818327
0.917236
-0.0120905
0.873128
-0.0153974
0.831525
-0.0182489
0.791802
-0.020817
0.754496
-0.0231945
0.718688
-0.0252653
0.684677
-0.0272677
0.652079
-0.0289136
0.620954
-0.0303459
0.591241
-0.0318545
0.563089
-0.0331936
0.535992
-0.034469
0.510191
-0.0354554
0.485356
-0.0364686
0.461781
-0.0374737
0.439244
-0.0384534
0.417628
-0.0394079
0.396985
-0.040278
0.377288
-0.0410392
0.358406
-0.0416906
0.340363
-0.0422493
0.323171
-0.0427762
0.306778
-0.0433942
0.291189
-0.0440105
0.276297
-0.0442789
0.261999
-0.044168
0.248355
-0.0439765
0.235424
-0.0437549
0.223229
-0.0432943
0.211604
-0.042649
0.200534
-0.0419376
0.190038
-0.0411496
0.180112
-0.0402167
0.170684
-0.039116
0.161722
-0.0379331
0.153276
-0.0366727
0.145273
-0.0352865
0.137623
-0.033793
0.130348
-0.0322098
0.123449
-0.0305735
0.116911
-0.0288926
0.110714
-0.0270504
0.10485
-0.0245771
0.0982518
-0.0212832
0.0902744
-0.0158915
0.0774331
-0.00752349
0.0525955
0.0112738
-0.00077447
0.965617
-0.00555934
0.965832
-0.0097008
0.921377
-0.0133418
0.876769
-0.0167154
0.834898
-0.0196918
0.794778
-0.0221391
0.756944
-0.0244873
0.721036
-0.0268475
0.687037
-0.0290621
0.654294
-0.0312873
0.623179
-0.033541
0.593495
-0.0354641
0.565012
-0.037438
0.537966
-0.0393094
0.512062
-0.0412833
0.48733
-0.0430623
0.46356
-0.0446216
0.440803
-0.045979
0.418985
-0.0471222
0.398128
-0.0481065
0.378273
-0.0489691
0.359269
-0.0496904
0.341084
-0.0502323
0.323713
-0.0505167
0.307063
-0.0504375
0.29111
-0.050079
0.275938
-0.0497845
0.261705
-0.0496192
0.24819
-0.0492874
0.235092
-0.0487108
0.222652
-0.0481018
0.210995
-0.0474232
0.199855
-0.0465728
0.189188
-0.0455596
0.179099
-0.0444579
0.169583
-0.0433128
0.160577
-0.0420403
0.152003
-0.0406148
0.143847
-0.0390928
0.136101
-0.0374839
0.128739
-0.0357891
0.121754
-0.0339936
0.115116
-0.0322599
0.10898
-0.0300788
0.102669
-0.0273515
0.0955245
-0.0231686
0.0860915
-0.016027
0.0702915
-0.00560299
0.0421715
0.00567083
-0.00148978
0.967107
-0.00691087
0.971253
-0.0109687
0.925435
-0.0145963
0.880396
-0.0182872
0.838589
-0.0217308
0.798222
-0.0246859
0.759899
-0.0275577
0.723908
-0.0299402
0.68942
-0.0324553
0.656809
-0.0345846
0.625309
-0.0364644
0.595375
-0.0385713
0.567119
-0.0403959
0.539791
-0.0420492
0.513715
-0.0435154
0.488796
-0.0448389
0.464883
-0.0461446
0.442109
-0.0474692
0.42031
-0.0487545
0.399413
-0.0499034
0.379421
-0.0508976
0.360263
-0.0517348
0.341922
-0.0524287
0.324407
-0.0530521
0.307686
-0.0537212
0.291779
-0.0543511
0.276568
-0.0545927
0.261946
-0.0543468
0.247944
-0.0539545
0.2347
-0.0535488
0.222246
-0.052897
0.210343
-0.052013
0.198971
-0.0510403
0.188215
-0.0500102
0.178069
-0.0488487
0.168421
-0.0475004
0.159228
-0.0460556
0.150558
-0.0445526
0.142344
-0.0429472
0.134496
-0.0412457
0.127037
-0.0394559
0.119964
-0.0377691
0.113429
-0.0358396
0.107051
-0.0332818
0.100111
-0.0298114
0.0920541
-0.0243595
0.0806395
-0.0154992
0.0614312
-0.00351545
0.0301877
0.00215538
-0.00204598
0.969153
-0.00733422
0.976542
-0.011354
0.929455
-0.015087
0.884129
-0.0181337
0.841636
-0.0213275
0.801415
-0.024578
0.763149
-0.0275312
0.726861
-0.0303993
0.692288
-0.0329303
0.65934
-0.0356997
0.628078
-0.0383749
0.59805
-0.0406792
0.569423
-0.0431741
0.542286
-0.0456546
0.516196
-0.0480632
0.491204
-0.0503861
0.467206
-0.0524549
0.444178
-0.0542503
0.422105
-0.0557808
0.400944
-0.0571095
0.38075
-0.058263
0.361416
-0.0592168
0.342876
-0.0599355
0.325126
-0.0603452
0.308096
-0.0603187
0.291752
-0.0599329
0.276182
-0.0595497
0.261563
-0.0593198
0.247714
-0.0589361
0.234316
-0.0582212
0.221531
-0.0574128
0.209534
-0.0565515
0.19811
-0.0555366
0.1872
-0.0543306
0.176863
-0.0530108
0.167101
-0.0516701
0.157888
-0.0502357
0.149124
-0.0486547
0.140763
-0.0469799
0.132821
-0.0452288
0.125286
-0.0434992
0.118235
-0.0417178
0.111647
-0.0393471
0.10468
-0.0363793
0.0971432
-0.0320864
0.0877612
-0.0251035
0.0736566
-0.0144401
0.0507678
-0.00220205
0.0179497
-4.66626e-05
-0.00136228
0.970515
-0.00641254
0.981592
-0.0108201
0.933863
-0.015178
0.888487
-0.0187237
0.845182
-0.0222216
0.804913
-0.0256273
0.766555
-0.0286123
0.729846
-0.0315823
0.695258
-0.0345982
0.662356
-0.0372455
0.630725
-0.0398453
0.60065
-0.04247
0.572048
-0.0447734
0.544589
-0.0468762
0.518299
-0.0488734
0.493202
-0.0507534
0.469086
-0.0525071
0.445931
-0.0543364
0.423934
-0.0561152
0.402723
-0.0577168
0.382352
-0.0591016
0.362801
-0.0602772
0.344051
-0.0612487
0.326098
-0.0620843
0.308931
-0.0629086
0.292576
-0.0636932
0.276967
-0.0640608
0.261931
-0.0638008
0.247454
-0.0632771
0.233793
-0.0627683
0.221023
-0.0620438
0.20881
-0.0610442
0.19711
-0.0599132
0.186069
-0.0587451
0.175694
-0.0574846
0.165841
-0.0560336
0.156437
-0.0544583
0.147549
-0.0528322
0.139137
-0.0511351
0.131124
-0.0494285
0.12358
-0.0477955
0.116602
-0.0457314
0.109583
-0.0432418
0.102191
-0.0398644
0.0937658
-0.0343958
0.0822927
-0.0251413
0.064402
-0.0112059
0.0368325
-0.00133751
0.00808127
-0.00138418
-0.000232692
0.970748
-0.00483515
0.986194
-0.00968814
0.938716
-0.0141275
0.892926
-0.0173866
0.848441
-0.020531
0.808058
-0.0238924
0.769916
-0.0272818
0.733236
-0.0305442
0.69852
-0.0334873
0.665299
-0.0365562
0.633794
-0.0396193
0.603713
-0.0426154
0.575044
-0.0457727
0.547746
-0.0489701
0.521496
-0.0520074
0.496239
-0.0549372
0.472016
-0.057651
0.448645
-0.0600478
0.426331
-0.0621495
0.404824
-0.0640386
0.384241
-0.0656992
0.364462
-0.067104
0.345456
-0.0682183
0.327212
-0.068963
0.309676
-0.0691918
0.292805
-0.0689353
0.27671
-0.06859
0.261585
-0.0684174
0.247282
-0.0681312
0.233507
-0.0674239
0.220315
-0.0665139
0.2079
-0.0655505
0.196147
-0.0644865
0.185005
-0.0632232
0.174431
-0.0618032
0.164421
-0.0603674
0.155001
-0.0588856
0.146067
-0.0572828
0.137535
-0.0556242
0.129465
-0.0540988
0.122054
-0.0522769
0.11478
-0.0500074
0.107314
-0.0470791
0.0992625
-0.0426138
0.0893005
-0.0349432
0.074622
-0.0225944
0.0520532
-0.00688391
0.021122
-0.000800238
0.00199759
-0.00218441
-0.00050437
0.971252
-0.0045145
0.990205
-0.00871213
0.942913
-0.0130269
0.897241
-0.0167846
0.852198
-0.0201826
0.811456
-0.0229705
0.772704
-0.0263477
0.736613
-0.0297247
0.701897
-0.0330287
0.668603
-0.0363465
0.637112
-0.0396076
0.606974
-0.0426848
0.578121
-0.0455418
0.550603
-0.0482448
0.524199
-0.050977
0.498971
-0.0535348
0.474573
-0.0561132
0.451223
-0.0586915
0.42891
-0.061113
0.407246
-0.0633995
0.386527
-0.0654141
0.366476
-0.067173
0.347215
-0.0686647
0.328704
-0.0699417
0.310953
-0.0711266
0.29399
-0.0722731
0.277857
-0.0729896
0.262302
-0.0729242
0.247216
-0.0724155
0.232998
-0.0718842
0.219784
-0.071188
0.207204
-0.0702019
0.195161
-0.0690065
0.18381
-0.0677662
0.173191
-0.0665003
0.163155
-0.0650778
0.153578
-0.0635078
0.144497
-0.061901
0.135928
-0.0604196
0.127984
-0.0587666
0.120401
-0.0567236
0.112737
-0.0542076
0.104798
-0.0505378
0.0955927
-0.0441324
0.0828951
-0.0329874
0.0634771
-0.0160707
0.0351364
-0.00337242
0.00842371
-8.94931e-05
-0.00128534
-0.00227391
-0.00104916
0.972301
-0.00380456
0.99296
-0.00651674
0.945625
-0.00948762
0.900212
-0.0133499
0.856061
-0.017019
0.815125
-0.0203005
0.775986
-0.0233509
0.739663
-0.0266399
0.705186
-0.0301471
0.67211
-0.0335704
0.640535
-0.037051
0.610454
-0.0408024
0.581873
-0.0447005
0.554501
-0.0486909
0.528189
-0.0524085
0.502689
-0.0561911
0.478356
-0.059745
0.454777
-0.0628967
0.432061
-0.0658843
0.410234
-0.0685985
0.389242
-0.0710764
0.368954
-0.0732474
0.349386
-0.0750842
0.33054
-0.0765024
0.312371
-0.077347
0.294835
-0.0775008
0.278011
-0.0773566
0.262157
-0.0773733
0.247233
-0.0773406
0.232965
-0.0768166
0.21926
-0.0759139
0.206301
-0.0748854
0.194132
-0.073817
0.182742
-0.0725848
0.171959
-0.0711487
0.161719
-0.069682
0.152112
-0.0682461
0.143061
-0.0668357
0.134517
-0.0653459
0.126494
-0.0635225
0.118578
-0.0613298
0.110544
-0.0581756
0.101643
-0.0526179
0.090035
-0.0425034
0.0727806
-0.0263291
0.0473027
-0.00888732
0.0176947
-0.00174185
0.00127824
3.57389e-06
-0.00303077
-0.00227033
-0.000325209
0.972626
-0.00173636
0.994371
-0.00388469
0.947774
-0.00636845
0.902696
-0.0101973
0.85989
-0.0140893
0.819017
-0.017405
0.779301
-0.0209791
0.743237
-0.024245
0.708452
-0.0277586
0.675623
-0.0317404
0.644517
-0.0354368
0.614151
-0.0390134
0.585449
-0.0424254
0.557913
-0.0458691
0.531633
-0.0495122
0.506332
-0.0529757
0.48182
-0.0564862
0.458288
-0.0600533
0.435628
-0.0634807
0.413661
-0.0666772
0.392438
-0.0696723
0.371949
-0.0723471
0.352061
-0.0746792
0.332872
-0.0767118
0.314404
-0.0785586
0.296681
-0.0803248
0.279777
-0.0817019
0.263534
-0.0821802
0.247711
-0.0819016
0.232687
-0.0814195
0.218778
-0.0807977
0.205679
-0.0799028
0.193237
-0.0786896
0.181529
-0.0773477
0.170617
-0.0760563
0.160428
-0.0747222
0.150777
-0.0732777
0.141616
-0.0718442
0.133084
-0.0701993
0.124849
-0.0681894
0.116568
-0.0653485
0.107703
-0.060454
0.0967488
-0.0514778
0.0810588
-0.0364765
0.0577793
-0.0161966
0.0270228
-0.00394668
0.00544473
-0.000437913
-0.00223052
0.000210383
-0.00367906
-0.00205995
0.00106468
0.971562
0.000996546
0.994439
-0.000716072
0.949486
-0.00250151
0.904481
-0.00518018
0.862568
-0.0086786
0.822515
-0.0127212
0.783344
-0.0160466
0.746563
-0.0194733
0.711879
-0.0232702
0.67942
-0.0266718
0.647919
-0.0307519
0.618231
-0.0351975
0.589895
-0.0399209
0.562637
-0.0445836
0.536296
-0.0491367
0.510885
-0.0538046
0.486487
-0.0583596
0.462843
-0.0626149
0.439884
-0.0667287
0.417775
-0.0706334
0.396343
-0.0742414
0.375557
-0.0775586
0.355378
-0.080491
0.335805
-0.0829677
0.316881
-0.0848487
0.298562
-0.0858741
0.280802
-0.0862295
0.26389
-0.0865981
0.24808
-0.0869403
0.233029
-0.086799
0.218637
-0.0860545
0.204935
-0.0849665
0.192149
-0.0838066
0.180369
-0.0825606
0.169371
-0.0811019
0.158969
-0.0795907
0.149266
-0.0782097
0.140235
-0.0767342
0.131608
-0.0748989
0.123014
-0.0723332
0.114002
-0.0680703
0.10344
-0.0601024
0.0887809
-0.0458244
0.0667808
-0.0242634
0.0362183
-0.00726188
0.0100213
-0.00121533
-0.000601821
0.00034771
-0.00379357
0.000340202
-0.00367155
-0.00171975
0.00516532
0.966396
0.00497608
0.994629
0.00176064
0.952702
-0.000304526
0.906546
-0.00168643
0.86395
-0.00426307
0.825092
-0.00791924
0.787
-0.012036
0.75068
-0.0157988
0.715642
-0.0196204
0.683242
-0.0236981
0.651997
-0.0275778
0.622111
-0.0315061
0.593823
-0.0354015
0.566532
-0.0396728
0.540567
-0.0442226
0.515435
-0.0487601
0.491025
-0.0534107
0.467493
-0.0581519
0.444625
-0.0628623
0.422485
-0.0673892
0.40087
-0.0716582
0.379826
-0.0756471
0.359367
-0.0792243
0.339382
-0.0823869
0.320043
-0.0852087
0.301384
-0.0878655
0.283459
-0.0902949
0.266319
-0.0917435
0.249529
-0.0920707
0.233356
-0.0917878
0.218354
-0.0912421
0.204389
-0.0904416
0.191349
-0.0892219
0.179149
-0.0876609
0.16781
-0.0861622
0.15747
-0.0847624
0.147866
-0.0832663
0.138739
-0.0814473
0.129789
-0.0790438
0.120611
-0.0752838
0.110242
-0.0682867
0.0964434
-0.0547044
0.0751986
-0.0326972
0.0447735
-0.0122698
0.015791
-0.00354768
0.00129911
-0.00063183
-0.00351767
0.000173344
-0.00459874
0.000200035
-0.00369824
-0.00151971
0.0147918
0.951605
0.0114058
0.998015
0.00683416
0.957273
0.0035884
0.909792
0.00183308
0.865705
0.0004194
0.826506
-0.00260134
0.790021
-0.00572566
0.753804
-0.00947524
0.719391
-0.0131897
0.686956
-0.016902
0.655709
-0.0217229
0.626931
-0.0265337
0.598634
-0.0317284
0.571727
-0.0369445
0.545783
-0.0423012
0.520792
-0.0478822
0.496606
-0.0534073
0.473018
-0.0589102
0.450128
-0.0643542
0.427929
-0.0696723
0.406188
-0.074814
0.384968
-0.0796279
0.364181
-0.0840903
0.343844
-0.0880568
0.32401
-0.091394
0.304721
-0.0938529
0.285918
-0.0952086
0.267675
-0.0961879
0.250508
-0.0971088
0.234277
-0.0975724
0.218817
-0.0972393
0.204056
-0.0961672
0.190277
-0.0947417
0.177723
-0.0932577
0.166326
-0.091596
0.155808
-0.0897524
0.146023
-0.0877521
0.136739
-0.0854115
0.127449
-0.0820432
0.117242
-0.0757628
0.103962
-0.0628633
0.0835439
-0.0408863
0.0532216
-0.0181518
0.022039
-0.00654705
0.00418629
-0.00268085
-0.00256709
-0.00138156
-0.00481697
-0.00072537
-0.00525493
-0.000202006
-0.00422161
-0.00172172
0.0222102
0.929394
0.0163401
1.00388
0.0117792
0.961834
0.00733234
0.914239
0.0045633
0.868474
0.00264075
0.828428
0.000847856
0.791814
-0.00199387
0.756646
-0.00561983
0.723017
-0.00934104
0.690677
-0.0135602
0.659928
-0.0172558
0.630627
-0.0212047
0.602583
-0.0254796
0.576002
-0.0304556
0.550759
-0.0356593
0.525995
-0.0410013
0.501948
-0.0467993
0.478817
-0.0527702
0.456099
-0.0588196
0.433978
-0.0648435
0.412212
-0.0707263
0.390851
-0.0763204
0.369775
-0.0815609
0.349085
-0.0863851
0.328834
-0.0906999
0.309036
-0.0946143
0.289833
-0.0983782
0.271439
-0.101302
0.253432
-0.102878
0.235853
-0.103224
0.219164
-0.102877
0.203708
-0.102141
0.189542
-0.100852
0.176434
-0.0988885
0.164362
-0.0967284
0.153648
-0.0944704
0.143765
-0.0918993
0.134168
-0.0884445
0.123994
-0.082371
0.111169
-0.0701958
0.0917866
-0.0487813
0.0621294
-0.0240928
0.0285331
-0.00954574
0.00749193
-0.00428527
-0.00107417
-0.00252412
-0.00432825
-0.00170902
-0.00563206
-0.00111388
-0.00585007
-0.000492246
-0.00484324
-0.00221397
0.0221859
0.907209
0.0177232
1.00835
0.0155848
0.963973
0.0114065
0.918417
0.00782945
0.872051
0.00604216
0.830215
0.00515813
0.792698
0.00328709
0.758517
0.000609974
0.725694
-0.0025341
0.693821
-0.00641174
0.663806
-0.0110519
0.635267
-0.0160406
0.607572
-0.0214316
0.581393
-0.026645
0.555973
-0.0323646
0.531715
-0.0386852
0.508269
-0.0450777
0.485209
-0.0517013
0.462722
-0.0584541
0.440731
-0.0652852
0.419043
-0.0720877
0.397653
-0.0787398
0.376427
-0.0851237
0.355469
-0.0910212
0.334731
-0.0962921
0.314307
-0.100731
0.294271
-0.10382
0.274528
-0.10586
0.255472
-0.107755
0.237748
-0.109125
0.220533
-0.109622
0.204205
-0.108929
0.188849
-0.107218
0.174723
-0.105128
0.162272
-0.102347
0.150867
-0.0991229
0.14054
-0.0948643
0.129909
-0.0882838
0.117413
-0.07646
0.0993449
-0.0562701
0.0715967
-0.0296616
0.0355209
-0.011503
0.0103745
-0.00396374
-4.73736e-05
-0.00115685
-0.00388106
-0.000194037
-0.00529106
-0.000115483
-0.00571062
-0.000307906
-0.00565765
-0.000322466
-0.00482868
-0.00253643
0.0165143
0.890694
0.0154247
1.00944
0.0153611
0.964036
0.0126172
0.921161
0.0103344
0.874334
0.00728023
0.83327
0.00607966
0.793898
0.00462942
0.759967
0.00236739
0.727956
-0.000160622
0.696349
-0.00330951
0.666955
-0.00639222
0.63835
-0.0101712
0.611351
-0.0144821
0.585704
-0.0196296
0.56112
-0.0251379
0.537223
-0.0309127
0.514043
-0.0373597
0.491656
-0.0442612
0.469624
-0.0515132
0.447983
-0.0589902
0.42652
-0.0665441
0.405207
-0.074003
0.383886
-0.0812348
0.362701
-0.0881078
0.341605
-0.0944915
0.320691
-0.100246
0.300026
-0.105612
0.279894
-0.110608
0.260468
-0.114048
0.241188
-0.115889
0.222374
-0.116324
0.204639
-0.115886
0.188411
-0.114761
0.173598
-0.112344
0.159856
-0.108555
0.147078
-0.103404
0.13539
-0.0958599
0.122365
-0.0835611
0.105115
-0.0630286
0.0788125
-0.0342643
0.0428323
-0.0112367
0.0124933
8.20993e-06
-0.000870364
0.00488348
-0.00492264
0.00646617
-0.00546375
0.00618343
-0.00500832
0.00468559
-0.00421278
0.00262119
-0.00359324
0.000813242
-0.00302073
-0.00172319
0.00848958
0.882205
0.0112913
1.00664
0.0157508
0.959577
0.014495
0.922417
0.0136014
0.875228
0.0106433
0.836228
0.009379
0.795163
0.00840146
0.760944
0.00764155
0.728716
0.00523944
0.698752
0.00217934
0.670015
-0.00146307
0.641992
-0.00589041
0.615778
-0.0104946
0.590308
-0.0154059
0.566031
-0.0211757
0.542993
-0.0276336
0.520501
-0.0343861
0.498408
-0.0416838
0.476922
-0.0494015
0.455701
-0.0575265
0.434645
-0.0659271
0.413608
-0.0744599
0.392419
-0.0829332
0.371174
-0.0911354
0.349807
-0.0988306
0.328386
-0.105731
0.306926
-0.111431
0.285594
-0.115547
0.264583
-0.118798
0.244439
-0.121377
0.224954
-0.123367
0.206629
-0.123869
0.188914
-0.122324
0.172053
-0.119146
0.156677
-0.114124
0.142056
-0.106014
0.12728
-0.0925132
0.108864
-0.0698791
0.0824805
-0.0378635
0.0467969
-0.00848886
0.0134577
0.00719822
-0.00319378
0.014048
-0.0077201
0.0159612
-0.00683594
0.0152728
-0.00477531
0.0131204
-0.00285595
0.0098837
-0.000976045
0.00609178
0.00019867
0.00232346
0.000747593
0.000600269
-0.000113841
0.882319
0.00511664
1.0014
0.0147143
0.949979
0.0149224
0.922209
0.0152497
0.8749
0.0119166
0.839561
0.00974229
0.797337
0.00811279
0.762574
0.00721277
0.729616
0.00620244
0.699762
0.00499886
0.671218
0.00288288
0.644108
7.63984e-05
0.618585
-0.00386364
0.594248
-0.008524
0.570692
-0.0134559
0.547925
-0.0190333
0.526079
-0.0255296
0.504905
-0.0327345
0.484126
-0.0406544
0.463621
-0.0491765
0.443167
-0.0581404
0.422572
-0.0673485
0.401627
-0.076599
0.380424
-0.0857518
0.35896
-0.0945351
0.337169
-0.102788
0.315179
-0.110546
0.293352
-0.117845
0.271883
-0.123824
0.250419
-0.128148
0.229277
-0.130452
0.208934
-0.13082
0.189281
-0.130084
0.171317
-0.126801
0.153394
-0.119273
0.134528
-0.10492
0.112926
-0.0792904
0.0832346
-0.0425764
0.0457665
-0.00899398
0.0132145
0.0106537
-0.00618993
0.018621
-0.0111611
0.0206034
-0.00970246
0.0200269
-0.0062595
0.0179829
-0.00273133
0.0149645
0.000162485
0.0111796
0.00280884
0.00695388
0.0044244
0.00275105
0.00495042
0.00335132
-0.00269294
0.885011
0.00214027
0.996572
0.0134596
0.93866
0.0148621
0.920807
0.0168574
0.872905
0.0154474
0.840971
0.01399
0.798794
0.0115262
0.765038
0.0111339
0.730009
0.00952559
0.70137
0.00783884
0.672905
0.00535278
0.646594
0.00246244
0.621475
-0.000525559
0.597236
-0.0045839
0.57475
-0.00981933
0.55316
-0.0156889
0.531948
-0.0221443
0.51136
-0.0293483
0.49133
-0.0373187
0.471591
-0.0461089
0.451957
-0.0556242
0.432087
-0.0657112
0.411714
-0.0761267
0.39084
-0.0865784
0.369411
-0.096898
0.347489
-0.106838
0.325119
-0.11575
0.302264
-0.122916
0.279049
-0.128801
0.256304
-0.133292
0.233768
-0.13667
0.212311
-0.139483
0.192094
-0.138355
0.17019
-0.131513
0.146552
-0.117326
0.120342
-0.0885908
0.0841912
-0.0499393
0.044583
-0.0177889
0.0136161
-0.000531529
-0.00404285
0.00612091
-0.0128424
0.00861912
-0.0136593
0.0100093
-0.0110926
0.0100786
-0.00632878
0.00928222
-0.00193497
0.00756179
0.00188292
0.00547629
0.00489434
0.00310789
0.00679279
0.00102975
0.00702857
0.00438107
-0.00636057
0.891372
-0.00209282
0.992304
0.00890969
0.927657
0.0116322
0.918084
0.0146836
0.869854
0.0142461
0.841408
0.0135035
0.799537
0.0109172
0.767624
0.00990587
0.73102
0.00960663
0.701669
0.00931761
0.673194
0.00848541
0.647427
0.00696639
0.622994
0.00420956
0.599993
0.00107165
0.577888
-0.00251696
0.556749
-0.00728284
0.536714
-0.013138
0.517215
-0.0198454
0.498038
-0.0275871
0.479333
-0.0363719
0.460742
-0.0461238
0.441839
-0.0565756
0.422166
-0.0674867
0.401751
-0.0787031
0.380628
-0.0900505
0.358836
-0.101271
0.336339
-0.111965
0.312958
-0.122116
0.2892
-0.131134
0.265322
-0.138965
0.241599
-0.144768
0.218114
-0.146512
0.193838
-0.141784
0.165461
-0.129277
0.134045
-0.100616
0.0916809
-0.0697297
0.0533049
-0.0479191
0.0227724
-0.0389055
0.00460254
-0.0349215
-0.00802686
-0.0298094
-0.0179544
-0.0228815
-0.0205872
-0.015099
-0.0188751
-0.00886172
-0.0125661
-0.00484797
-0.00594871
-0.00291672
-4.83405e-05
-0.00206772
0.00404534
-0.00151383
0.0062389
-0.000906476
0.00642122
0.0034746
-0.00321505
0.894587
0.000471316
0.988617
0.00479698
0.923332
0.00808257
0.914799
0.0130015
0.864935
0.0151503
0.839259
0.0160788
0.798608
0.014047
0.769656
0.0125085
0.732558
0.0104867
0.703691
0.00983816
0.673843
0.00885515
0.64841
0.00774365
0.624105
0.0063576
0.601379
0.00355684
0.580689
-0.000311558
0.560617
-0.00482573
0.541228
-0.0102464
0.522636
-0.0164859
0.504277
-0.0238026
0.486649
-0.0324651
0.469405
-0.0423829
0.451757
-0.0533791
0.433162
-0.0651833
0.413555
-0.0776245
0.393069
-0.0905586
0.37177
-0.103554
0.349335
-0.116086
0.325489
-0.126946
0.30006
-0.136488
0.274863
-0.144796
0.249908
-0.148906
0.222224
-0.148012
0.192944
-0.139213
0.156662
-0.116588
0.111421
-0.0941578