/*--------------------------------*- C++ -*----------------------------------*\
| =========                 |                                                 |
| \\      /  F ield         | OpenFOAM: The Open Source CFD Toolbox           |
|  \\    /   O peration     | Version:  v1912                                 |
|   \\  /    A nd           | Website:  www.openfoam.com                      |
|    \\/     M anipulation  |                                                 |
\*---------------------------------------------------------------------------*/
FoamFile
{
    version     2.0;
    format      ascii;
    class       volVectorField;
    location    "0.11";
    object      U;
}
// * * * * * * * * * * * * * * * * * * * * * * * * * * * * * * * * * * * * * //

dimensions      [0 1 -1 0 0 0 0];


internalField   nonuniform List<vector> 
6600
(
(39.8388 -0.0409053 0)
(40.0904 -0.0459435 1.05119e-20)
(40.1562 0.0457304 7.37477e-19)
(40.2139 0.150942 0)
(40.2425 0.25406 8.93436e-19)
(40.2998 0.388871 2.99074e-20)
(40.3515 0.525073 -3.321e-20)
(40.4099 0.676003 -3.71685e-20)
(40.4557 0.832513 7.74254e-19)
(40.4819 0.999335 -1.15218e-19)
(40.5038 1.19296 0)
(40.5265 1.38114 -1.01611e-18)
(40.546 1.59115 0)
(40.5413 1.82399 -1.12427e-18)
(40.5393 2.08442 -1.64066e-18)
(40.5357 2.36097 -8.98068e-19)
(40.4966 2.64683 0)
(40.4189 2.94695 0)
(40.3526 3.25818 1.60575e-18)
(40.2616 3.5903 -1.48166e-18)
(40.1673 3.93542 -2.26484e-19)
(40.0555 4.30998 -8.78447e-19)
(39.9318 4.70251 -1.67434e-18)
(39.796 5.12363 3.86596e-19)
(39.6522 5.57103 1.44867e-18)
(39.4938 6.03968 0)
(39.2586 6.49985 3.71233e-18)
(39.0452 6.9867 0)
(38.8696 7.55468 -1.94089e-18)
(38.6537 8.19809 -1.28344e-18)
(38.3961 8.85322 -3.41909e-19)
(38.1609 9.53105 -1.65515e-18)
(37.9298 10.2743 -7.00087e-19)
(37.666 11.0637 1.44274e-18)
(37.3909 11.8993 3.56884e-19)
(37.1225 12.7974 1.74234e-18)
(36.8651 13.7769 3.42514e-18)
(36.6213 14.8206 3.37292e-18)
(36.4053 15.9208 -2.49401e-18)
(36.2024 17.1131 2.66118e-18)
(36.0077 18.3794 1.40905e-18)
(35.8335 19.7304 0)
(35.6857 21.1589 -2.94728e-19)
(35.6026 22.6955 7.6042e-19)
(35.6087 24.3204 0)
(35.6703 26.1001 -8.03227e-19)
(35.7004 27.8056 -2.11339e-18)
(36.0432 30.0057 0)
(34.4635 30.8148 0)
(24.8466 23.8315 -1.75506e-18)
(39.7405 -0.044186 6.18265e-19)
(40.171 -0.0751881 -6.24071e-19)
(40.2351 0.0513502 0)
(40.273 0.180606 -1.16089e-20)
(40.324 0.311972 7.93066e-19)
(40.3706 0.462331 2.78497e-20)
(40.4336 0.622236 -1.28889e-22)
(40.4877 0.798174 -3.42171e-20)
(40.5416 0.97114 0)
(40.5887 1.18244 -1.32497e-18)
(40.6255 1.38671 -4.80295e-20)
(40.6516 1.61614 8.27338e-19)
(40.6673 1.84777 8.7999e-19)
(40.6924 2.07397 6.76489e-19)
(40.6761 2.30498 -3.39782e-21)
(40.6346 2.54074 9.44888e-20)
(40.625 2.80515 -8.40158e-19)
(40.5972 3.08999 0)
(40.5458 3.40512 0)
(40.5006 3.73926 1.52974e-18)
(40.4157 4.09743 2.16298e-19)
(40.3259 4.47981 -1.15919e-18)
(40.2149 4.88486 -1.07557e-18)
(40.0929 5.31665 -1.25793e-18)
(39.9481 5.78051 -1.06174e-18)
(39.7766 6.26961 -4.52069e-19)
(39.6617 6.86292 -6.08146e-19)
(39.5188 7.477 -6.09328e-19)
(39.2868 8.04573 1.91717e-18)
(39.0451 8.62737 3.06617e-19)
(38.8702 9.30218 -2.51341e-18)
(38.6846 10.0393 2.33161e-18)
(38.4622 10.7858 1.65352e-18)
(38.2389 11.5821 -2.13321e-18)
(38.0296 12.4329 3.75446e-19)
(37.8277 13.3376 -1.78199e-18)
(37.633 14.2927 1.36684e-18)
(37.4663 15.3076 -1.21193e-18)
(37.3291 16.4049 -7.49549e-19)
(37.2172 17.5635 -8.39674e-19)
(37.1329 18.7896 0)
(37.1 20.0962 0)
(37.1314 21.4823 1.06632e-19)
(37.2076 22.95 -1.93585e-19)
(37.3306 24.4665 -1.3724e-18)
(37.5588 26.1465 8.29377e-19)
(37.8239 27.8054 3.71946e-18)
(38.3104 29.7113 0)
(36.6812 30.1188 -4.52313e-18)
(25.7315 22.6292 1.9653e-18)
(39.671 -0.0329251 -5.33266e-20)
(40.2844 -0.0713294 6.36065e-19)
(40.33 0.0850833 6.15259e-19)
(40.4018 0.213165 -3.71348e-22)
(40.4346 0.367709 -1.14304e-19)
(40.5061 0.532939 2.56919e-20)
(40.5624 0.705379 0)
(40.6286 0.875971 0)
(40.6898 1.05699 0)
(40.7399 1.25085 6.89628e-19)
(40.7667 1.45876 -4.28328e-20)
(40.7989 1.67935 -8.32658e-19)
(40.829 1.91594 -4.82401e-19)
(40.8403 2.19393 9.53215e-19)
(40.869 2.49763 5.41896e-19)
(40.879 2.79227 -8.67853e-20)
(40.8472 3.11398 1.66983e-18)
(40.7942 3.44455 -8.44702e-19)
(40.7493 3.78261 -9.85753e-19)
(40.6809 4.15115 0)
(40.614 4.53408 -6.73271e-19)
(40.5321 4.94496 9.29046e-19)
(40.4364 5.37884 1.08845e-18)
(40.3365 5.83755 1.27378e-18)
(40.2315 6.32463 1.13748e-18)
(40.1155 6.82247 -1.271e-19)
(39.9201 7.30504 -2.25839e-19)
(39.7701 7.84358 -6.80112e-19)
(39.6666 8.46496 -2.97786e-19)
(39.5142 9.13711 1.17594e-18)
(39.3212 9.79734 3.83476e-19)
(39.1696 10.4907 0)
(39.0292 11.2598 -1.88559e-18)
(38.8648 12.0624 5.00689e-19)
(38.7029 12.9047 1.08412e-18)
(38.5652 13.7955 1.45676e-18)
(38.4518 14.7527 -8.86759e-19)
(38.365 15.7631 -5.67581e-19)
(38.3253 16.8154 4.20436e-19)
(38.3196 17.9422 0)
(38.3471 19.1211 2.48357e-19)
(38.4201 20.361 0)
(38.5453 21.6559 0)
(38.7667 23.0293 1.50611e-18)
(39.1152 24.4609 9.42245e-19)
(39.5332 26.0054 -2.21363e-18)
(39.9857 27.5696 -2.31146e-18)
(40.4558 29.1745 0)
(38.5684 29.0966 -2.81853e-18)
(26.2 21.0658 3.07315e-18)
(39.5902 -0.00940402 -5.69073e-19)
(40.4408 -0.0506031 4.12731e-21)
(40.4511 0.15334 -6.31333e-19)
(40.502 0.272882 -5.59079e-19)
(40.5629 0.436372 -6.97129e-19)
(40.6126 0.618283 -3.18963e-19)
(40.6786 0.799373 -2.47122e-20)
(40.7347 1.00381 0)
(40.8045 1.20312 4.30206e-19)
(40.8558 1.42721 5.11254e-19)
(40.9128 1.65697 -3.69031e-20)
(40.9497 1.90633 -4.22863e-20)
(40.9815 2.15697 -3.67139e-19)
(41.017 2.39043 -1.39139e-19)
(40.9935 2.63963 -3.61468e-20)
(40.9915 2.94109 -7.36056e-20)
(41.0089 3.23048 -5.29684e-20)
(40.9966 3.55104 9.5112e-19)
(40.9692 3.8959 1.28634e-18)
(40.9449 4.25978 0)
(40.8902 4.65045 1.32013e-19)
(40.8269 5.06657 0)
(40.7519 5.50572 0)
(40.6684 5.97 -2.4908e-19)
(40.5651 6.46836 7.72044e-19)
(40.438 6.98728 8.94908e-19)
(40.3732 7.59498 -1.84661e-19)
(40.2791 8.22919 9.61857e-19)
(40.1092 8.83408 0)
(39.9395 9.45946 0)
(39.8421 10.1697 4.84949e-19)
(39.7404 10.9184 0)
(39.6181 11.6668 4.94643e-19)
(39.5037 12.4683 6.93545e-19)
(39.4177 13.3167 -1.26754e-18)
(39.3538 14.2089 -1.17186e-18)
(39.3102 15.132 6.20774e-19)
(39.3101 16.1009 -2.28159e-19)
(39.3545 17.1383 3.29219e-19)
(39.4439 18.2142 3.81997e-19)
(39.5816 19.3337 -1.13703e-18)
(39.792 20.5063 0)
(40.0915 21.7296 0)
(40.4593 23.0017 -1.03055e-18)
(40.8846 24.2841 -2.14642e-18)
(41.4223 25.6865 -6.58116e-19)
(42.0274 27.1614 -3.94072e-18)
(42.466 28.396 4.35201e-18)
(40.1467 27.8481 6.26236e-18)
(26.1837 19.1919 0)
(39.557 0.0320307 -1.72581e-21)
(40.5813 -0.0275523 4.15582e-19)
(40.6048 0.202947 4.50374e-19)
(40.67 0.328203 5.79547e-19)
(40.7105 0.505815 0)
(40.7868 0.675286 6.46784e-20)
(40.8563 0.869808 0)
(40.9315 1.06103 -2.19577e-20)
(40.9883 1.27321 -7.45403e-19)
(41.0566 1.48638 -5.07556e-19)
(41.088 1.71197 2.99733e-20)
(41.1342 1.95251 3.41241e-20)
(41.1666 2.22354 -3.79764e-20)
(41.2045 2.53976 -3.93201e-19)
(41.2627 2.8601 -8.41122e-19)
(41.2737 3.1745 5.64795e-20)
(41.2606 3.53172 -1.04854e-18)
(41.2434 3.89106 7.84104e-20)
(41.21 4.26785 -4.02611e-19)
(41.1762 4.6655 -2.07598e-19)
(41.1373 5.08018 6.7101e-19)
(41.0861 5.52113 0)
(41.0249 5.98671 0)
(40.964 6.47545 -3.06746e-19)
(40.9023 6.99222 -5.00619e-19)
(40.8339 7.52058 5.16298e-19)
(40.6844 8.02313 -1.37393e-19)
(40.5889 8.57493 0)
(40.5569 9.21143 1.67231e-19)
(40.4827 9.89682 -1.86274e-19)
(40.37 10.5657 -4.92886e-19)
(40.3113 11.2707 -4.37902e-19)
(40.2714 12.0461 2.04399e-19)
(40.2201 12.838 -1.4173e-19)
(40.1838 13.6611 1.57709e-19)
(40.1877 14.523 0)
(40.2286 15.4379 -1.08412e-19)
(40.3084 16.3883 7.29875e-19)
(40.4505 17.3595 -3.50158e-19)
(40.6411 18.3825 -5.06308e-19)
(40.8819 19.4322 9.0443e-19)
(41.182 20.5125 0)
(41.5429 21.6155 0)
(42.0045 22.7551 -2.04837e-18)
(42.612 23.9231 4.47906e-18)
(43.2829 25.162 1.20664e-18)
(43.9665 26.4824 2.42189e-18)
(44.1743 27.3894 -5.25642e-18)
(41.1735 26.2801 4.5959e-19)
(25.5897 17.0214 -8.46147e-18)
(39.535 0.0379189 3.58432e-19)
(40.7258 -0.00162078 -9.19652e-20)
(40.7742 0.27273 -4.59493e-19)
(40.8458 0.375538 1.76153e-19)
(40.8948 0.582895 0)
(40.9544 0.784688 2.7468e-19)
(41.0272 0.979422 -7.90572e-21)
(41.0889 1.19813 -2.15078e-19)
(41.1605 1.42629 3.39024e-19)
(41.2097 1.6661 0)
(41.2839 1.92124 2.17273e-20)
(41.3363 2.18239 1.2529e-19)
(41.3868 2.44799 -1.93755e-19)
(41.417 2.69468 3.06004e-20)
(41.4166 2.98746 3.76427e-19)
(41.4387 3.30573 -3.96059e-20)
(41.4819 3.61561 3.61273e-19)
(41.4897 3.97114 -5.19679e-20)
(41.4974 4.33945 6.19203e-20)
(41.4939 4.73482 1.32845e-19)
(41.477 5.15308 1.89367e-19)
(41.4472 5.59569 -1.31808e-21)
(41.4135 6.06018 1.06336e-19)
(41.3734 6.54954 4.1408e-19)
(41.3187 7.07232 0)
(41.2444 7.61868 -3.97631e-19)
(41.2434 8.25072 8.00332e-20)
(41.2082 8.90126 -5.45206e-21)
(41.1025 9.51826 -8.92992e-20)
(41.0042 10.1558 9.36921e-20)
(40.9895 10.8764 -2.86433e-20)
(40.98 11.6191 2.58431e-19)
(40.9629 12.3505 0)
(40.9603 13.1297 0)
(41.0004 13.9421 0)
(41.0731 14.7884 0)
(41.1776 15.647 8.07692e-19)
(41.3389 16.5324 -1.51725e-18)
(41.5515 17.4679 0)
(41.8178 18.4155 4.18893e-20)
(42.1406 19.379 -2.5028e-19)
(42.5415 20.3665 -2.94119e-18)
(43.0401 21.373 1.61821e-18)
(43.6155 22.3946 0)
(44.2325 23.3898 1.7155e-18)
(44.9391 24.4727 -6.22425e-18)
(45.6228 25.6528 4.44094e-18)
(45.6161 26.1495 3.37196e-18)
(41.7102 24.5088 1.25718e-17)
(24.2949 14.5769 -9.4058e-18)
(39.541 0.0506627 -3.53674e-19)
(40.9142 0.0158438 -5.51036e-19)
(40.9457 0.35778 4.41325e-21)
(41.0482 0.43888 -1.77232e-19)
(41.0901 0.661123 1.06645e-19)
(41.1588 0.843136 -4.62997e-21)
(41.2308 1.0536 1.13483e-19)
(41.3202 1.25466 2.1594e-19)
(41.3926 1.47321 1.12325e-19)
(41.4775 1.71059 -5.86973e-21)
(41.5196 1.96313 -5.43007e-20)
(41.5771 2.2388 -9.52927e-20)
(41.6171 2.53004 1.6717e-19)
(41.7023 2.87424 0)
(41.7714 3.19328 0)
(41.8044 3.53854 9.86107e-21)
(41.8161 3.92756 1.57515e-19)
(41.8339 4.31028 0)
(41.8262 4.72416 1.38928e-20)
(41.8309 5.14944 -2.18951e-19)
(41.8294 5.59553 -2.15224e-19)
(41.8196 6.06244 -5.72813e-21)
(41.7991 6.55405 0)
(41.7839 7.06549 -1.65766e-19)
(41.7687 7.60088 -2.046e-20)
(41.7515 8.14593 2.28469e-20)
(41.6515 8.66056 0)
(41.6169 9.21969 0)
(41.6592 9.85256 -1.81709e-19)
(41.6656 10.5258 1.47466e-19)
(41.6328 11.179 -3.85961e-20)
(41.6622 11.8678 7.54424e-20)
(41.7193 12.6206 1.89061e-19)
(41.7782 13.3725 -4.98882e-19)
(41.8585 14.1418 1.02918e-18)
(41.9894 14.933 4.46554e-19)
(42.1665 15.7643 -5.78099e-19)
(42.3873 16.6154 8.42593e-19)
(42.6756 17.4616 -1.6255e-18)
(43.0152 18.3333 5.56235e-20)
(43.4091 19.2078 -3.0236e-19)
(43.8639 20.0847 1.51872e-18)
(44.371 20.9547 2.40171e-18)
(44.9603 21.82 -2.66798e-18)
(45.6981 22.6977 1.7145e-18)
(46.4993 23.6768 0)
(47.058 24.5123 2.73713e-18)
(46.5928 24.7401 4.22801e-18)
(41.4294 22.426 -8.61534e-18)
(22.1848 11.8976 -2.64531e-18)
(39.5684 0.0699965 1.68019e-19)
(41.1307 0.0300487 2.24791e-19)
(41.1435 0.418656 1.48328e-21)
(41.2388 0.492722 -3.98516e-20)
(41.31 0.746072 -1.42688e-19)
(41.3845 0.951615 1.95457e-20)
(41.4522 1.1623 -1.14097e-19)
(41.5117 1.39786 -6.29087e-21)
(41.6003 1.63972 -1.0746e-19)
(41.6668 1.88596 2.50195e-20)
(41.7632 2.16303 1.7562e-20)
(41.8376 2.41853 -5.56989e-20)
(41.9188 2.71469 7.0499e-20)
(41.9401 2.97832 5.15852e-22)
(41.9815 3.31269 5.57753e-20)
(42.0354 3.63844 -7.07821e-20)
(42.1011 3.96884 -3.23755e-20)
(42.141 4.34597 0)
(42.1867 4.73221 0)
(42.213 5.15511 0)
(42.2422 5.59587 1.03135e-20)
(42.2545 6.06157 -2.51279e-20)
(42.2669 6.54493 1.30818e-19)
(42.2742 7.05289 2.03181e-20)
(42.2714 7.58904 0)
(42.2528 8.14975 0)
(42.3225 8.79684 -1.88051e-19)
(42.3549 9.45764 8.34533e-20)
(42.3179 10.081 -1.03353e-19)
(42.2886 10.7076 1.22376e-19)
(42.3536 11.4073 3.85143e-20)
(42.4309 12.1166 4.52636e-19)
(42.5052 12.8012 -1.94906e-19)
(42.5987 13.5249 8.06065e-19)
(42.747 14.2678 -5.04209e-19)
(42.93 15.0318 -2.29447e-19)
(43.1468 15.7865 1.61981e-19)
(43.4262 16.5462 7.14072e-19)
(43.7541 17.3392 6.95878e-19)
(44.1322 18.1208 1.16396e-18)
(44.5625 18.893 -2.80869e-19)
(45.0625 19.6648 2.21642e-18)
(45.6558 20.428 -2.46531e-18)
(46.3335 21.1827 0)
(47.0258 21.8967 0)
(47.8023 22.7694 0)
(48.0805 23.2479 0)
(47.1084 23.1647 0)
(40.4549 20.1859 -4.92967e-18)
(19.1563 9.07385 8.09722e-18)
(39.6261 0.0915052 -1.68355e-19)
(41.346 0.0350904 0)
(41.3839 0.42947 0)
(41.4627 0.517204 3.98883e-20)
(41.5312 0.795322 3.0993e-20)
(41.6219 0.970218 -1.65419e-20)
(41.7079 1.18576 2.00924e-21)
(41.8024 1.41879 6.31093e-21)
(41.8875 1.66046 -9.13583e-20)
(41.9878 1.92807 -3.04953e-20)
(42.0599 2.17679 3.77224e-20)
(42.1404 2.48783 -1.66586e-19)
(42.212 2.78927 -1.75799e-19)
(42.3469 3.13901 0)
(42.437 3.47475 -5.71583e-20)
(42.4965 3.85428 8.74329e-20)
(42.5418 4.2668 1.45977e-21)
(42.6059 4.67105 2.65714e-19)
(42.6348 5.1144 -3.41285e-19)
(42.6812 5.5581 0)
(42.7228 6.02843 0)
(42.7612 6.515 -2.69929e-19)
(42.7885 7.02674 1.74264e-19)
(42.8221 7.55356 3.9114e-19)
(42.8542 8.09856 9.23086e-20)
(42.8844 8.64845 -3.9171e-19)
(42.8333 9.1604 5.42735e-19)
(42.8509 9.70428 -6.13365e-19)
(42.9608 10.3176 3.13487e-19)
(43.0491 10.9721 -2.70192e-19)
(43.0911 11.5935 1.60514e-19)
(43.1926 12.2357 -4.64449e-19)
(43.3279 12.9347 3.95356e-19)
(43.4728 13.6181 -5.9672e-19)
(43.6383 14.305 0)
(43.8564 14.9924 -6.25994e-19)
(44.124 15.7064 -6.14723e-19)
(44.4302 16.428 1.66018e-19)
(44.7992 17.1204 1.45492e-18)
(45.2126 17.8138 -1.43121e-18)
(45.6755 18.4938 -2.52665e-19)
(46.1955 19.1553 -2.54721e-18)
(46.7553 19.7897 6.00777e-18)
(47.3617 20.3851 4.04318e-19)
(48.1183 21.0062 4.74878e-19)
(48.834 21.6813 -2.37291e-18)
(48.9012 21.8877 0)
(46.9716 21.403 4.3976e-18)
(38.2999 17.6096 -2.34657e-18)
(15.1222 6.13507 0)
(39.697 0.110891 -1.40524e-22)
(41.5732 0.0302211 -1.48657e-22)
(41.6431 0.450756 8.6945e-20)
(41.7422 0.525476 0)
(41.772 0.844261 1.74737e-21)
(41.861 1.04428 9.28646e-20)
(41.9673 1.27815 0)
(42.0481 1.52132 -1.43633e-19)
(42.1446 1.78036 1.00254e-19)
(42.2313 2.03123 -9.60829e-21)
(42.3464 2.33296 -2.54053e-19)
(42.4529 2.58244 5.57271e-21)
(42.5595 2.89494 1.23048e-19)
(42.606 3.20167 0)
(42.6975 3.54192 0)
(42.7997 3.88444 0)
(42.8922 4.23134 3.31659e-19)
(42.9662 4.62636 -2.68084e-19)
(43.0551 5.0258 6.26662e-19)
(43.1208 5.46799 -6.36885e-20)
(43.1953 5.9249 1.47002e-19)
(43.2535 6.40867 1.86917e-19)
(43.3122 6.9068 -8.42637e-19)
(43.3683 7.42665 -7.01293e-19)
(43.4163 7.96696 0)
(43.4587 8.53614 3.856e-19)
(43.5896 9.17988 -9.90494e-19)
(43.6886 9.83706 5.78496e-19)
(43.7092 10.4459 -3.29557e-19)
(43.7321 11.0356 1.9268e-19)
(43.8621 11.6945 -2.62703e-19)
(44.0093 12.356 9.96811e-19)
(44.1453 12.9738 -1.06913e-18)
(44.3018 13.6162 1.51582e-18)
(44.5194 14.2652 6.28461e-19)
(44.7693 14.9278 -1.48484e-18)
(45.0444 15.5611 1.87119e-18)
(45.3805 16.1746 -1.21267e-18)
(45.7547 16.8076 3.19844e-20)
(46.1679 17.4142 0)
(46.6244 17.9922 2.06241e-18)
(47.1349 18.5532 1.4171e-18)
(47.7232 19.0819 1.60137e-19)
(48.4149 19.6 -4.06138e-18)
(49.1569 20.1547 -1.41578e-19)
(49.5091 20.4728 -2.82401e-18)
(49.124 20.4282 0)
(46.0561 19.4106 4.54483e-18)
(35.1683 14.7981 -7.63601e-18)
(9.89534 3.06422 0)
(39.7784 0.122998 0)
(41.8168 0.0280666 0)
(41.9037 0.493734 -5.06042e-21)
(41.9987 0.535353 5.08442e-21)
(42.0404 0.84638 -1.27592e-19)
(42.1324 1.04484 -9.49997e-20)
(42.2511 1.26459 0)
(42.372 1.49879 1.43963e-19)
(42.4825 1.73578 -2.63139e-19)
(42.6051 2.0227 0)
(42.6985 2.27459 4.42574e-19)
(42.8195 2.61219 -7.08619e-20)
(42.9494 2.92718 2.89981e-20)
(43.1101 3.26718 -3.23308e-20)
(43.2327 3.64049 0)
(43.3214 4.02818 0)
(43.4298 4.46758 -1.34808e-19)
(43.5469 4.89899 -2.8127e-19)
(43.6281 5.36438 1.09597e-19)
(43.7197 5.82386 -4.78819e-20)
(43.808 6.3104 1.10139e-19)
(43.891 6.81063 -6.32988e-20)
(43.966 7.33351 5.18857e-19)
(44.0431 7.87012 2.14495e-19)
(44.1183 8.41721 -3.98894e-19)
(44.1825 8.95687 -5.99338e-19)
(44.1813 9.46157 3.71235e-19)
(44.2341 9.97687 6.05055e-19)
(44.3904 10.555 0)
(44.5435 11.1799 0)
(44.64 11.7565 0)
(44.7832 12.333 -7.09802e-19)
(44.9636 12.9611 -5.09274e-19)
(45.1578 13.5644 -5.0509e-19)
(45.3658 14.1587 7.843e-19)
(45.6182 14.7294 9.52104e-19)
(45.9213 15.3144 -4.22504e-19)
(46.2519 15.9032 1.33364e-18)
(46.6325 16.4436 -7.78208e-19)
(47.0464 16.9627 -1.03229e-18)
(47.5019 17.4604 -1.26467e-18)
(48.0092 17.9248 1.41009e-18)
(48.5549 18.3567 0)
(49.1151 18.7503 2.19568e-18)
(49.7438 19.1374 -1.17439e-18)
(49.8783 19.2149 1.49235e-18)
(48.9445 18.8785 0)
(44.1747 17.1085 -2.20575e-18)
(30.6015 11.4637 1.27899e-18)
(5.71163 0.7642 0)
(39.8658 0.133212 -8.85448e-20)
(42.08 0.0493837 0)
(42.1641 0.526189 -2.09392e-19)
(42.2534 0.535107 1.51196e-19)
(42.3212 0.857108 1.24789e-19)
(42.3975 1.05457 -5.86112e-21)
(42.4954 1.28959 6.52299e-21)
(42.6203 1.53781 0)
(42.7733 1.80279 2.53639e-19)
(42.8958 2.04262 -2.00666e-19)
(43.0406 2.36156 -1.88232e-19)
(43.1747 2.61475 2.41393e-19)
(43.2971 2.93285 -1.76713e-19)
(43.4113 3.27505 -4.61806e-20)
(43.5461 3.61218 2.65735e-20)
(43.7111 3.97698 0)
(43.8282 4.33956 -3.05542e-19)
(43.9396 4.73669 3.58664e-19)
(44.0751 5.1533 6.11932e-20)
(44.1902 5.61047 -3.44919e-21)
(44.3061 6.08432 7.26436e-20)
(44.4136 6.57739 0)
(44.5148 7.0874 1.06504e-19)
(44.6137 7.61274 4.31868e-19)
(44.7051 8.15262 5.07423e-19)
(44.8011 8.72207 6.0258e-19)
(44.9743 9.3491 0)
(45.131 9.99653 -4.27359e-19)
(45.1922 10.5829 -9.255e-19)
(45.238 11.1211 5.06558e-19)
(45.3983 11.7222 -1.08586e-18)
(45.5819 12.3293 -5.29403e-19)
(45.7426 12.8766 9.36797e-19)
(45.919 13.4305 -3.40739e-19)
(46.1591 13.9789 -7.91061e-19)
(46.4299 14.5417 -4.10336e-19)
(46.7096 15.0632 -5.70337e-19)
(47.043 15.5391 0)
(47.4013 16.021 -9.37472e-19)
(47.785 16.4724 2.07995e-18)
(48.2036 16.8815 1.27895e-18)
(48.6608 17.2656 -1.51388e-18)
(49.167 17.6059 1.93505e-18)
(49.8742 18.0007 -9.853e-19)
(50.1677 18.1345 2.53083e-18)
(49.8937 18.0107 -3.23871e-21)
(47.7691 17.1654 0)
(40.9154 14.4789 4.49058e-18)
(24.9925 7.87937 -3.7916e-18)
(3.08593 -0.17931 -1.36081e-18)
(39.9811 0.141642 8.87443e-20)
(42.3665 0.0596447 -1.46377e-19)
(42.4134 0.505872 1.24434e-19)
(42.4874 0.517884 -1.48556e-19)
(42.5912 0.826671 -1.14869e-19)
(42.7139 0.958959 -7.55431e-21)
(42.818 1.20713 4.33493e-21)
(42.9726 1.44091 0)
(43.1044 1.687 -2.12115e-19)
(43.2867 1.97602 3.31425e-19)
(43.4156 2.21268 0)
(43.5784 2.5715 -2.18858e-20)
(43.7806 2.878 4.27353e-21)
(43.9558 3.21749 2.37147e-19)
(44.1301 3.60705 -3.51377e-19)
(44.2684 4.0212 -2.45083e-21)
(44.434 4.45694 4.80493e-20)
(44.6169 4.92218 0)
(44.7592 5.40313 -1.83962e-19)
(44.8958 5.8846 4.01011e-19)
(45.0327 6.38181 -4.63823e-20)
(45.1579 6.89743 0)
(45.2738 7.4289 0)
(45.3867 7.96972 -2.13087e-19)
(45.4941 8.51609 9.27161e-20)
(45.5869 9.0488 -6.79025e-19)
(45.6175 9.54128 2.50162e-19)
(45.6771 10.0213 -1.43405e-19)
(45.8468 10.558 4.54973e-19)
(46.0371 11.1537 1.99293e-19)
(46.1637 11.6902 6.22871e-19)
(46.3108 12.1966 -6.56272e-19)
(46.4929 12.7479 4.201e-19)
(46.6984 13.2739 -4.28626e-19)
(46.9091 13.7874 -4.99409e-19)
(47.1448 14.2522 -5.3356e-19)
(47.433 14.7163 0)
(47.7364 15.19 1.27019e-18)
(48.0722 15.6074 -4.73042e-19)
(48.4312 15.9823 -1.12775e-18)
(48.8223 16.3341 1.33862e-18)
(49.2537 16.6435 -3.43429e-20)
(49.8086 16.9791 -9.54453e-19)
(50.1244 17.1426 -2.17271e-20)
(50.0987 17.1267 -1.35419e-18)
(49.2244 16.7289 -3.23409e-18)
(45.7102 15.3839 1.8181e-18)
(36.2124 11.8138 0)
(16.9172 4.3088 -2.41843e-18)
(0.815748 -0.297448 4.65863e-18)
(40.1043 0.110197 2.84696e-22)
(42.6171 0.0205065 1.47166e-19)
(42.6611 0.440972 -5.04535e-20)
(42.7463 0.475301 -1.68243e-21)
(42.834 0.786787 1.15129e-19)
(42.9621 0.929265 0)
(43.1027 1.17114 0)
(43.2352 1.39963 -6.80038e-21)
(43.4051 1.64664 3.69669e-19)
(43.5633 1.88293 -1.33922e-19)
(43.7899 2.21207 1.13588e-20)
(43.9512 2.45575 -2.61458e-20)
(44.1151 2.79799 1.2003e-19)
(44.3121 3.13989 -1.23338e-19)
(44.485 3.4731 5.06133e-19)
(44.7056 3.83265 -1.12746e-19)
(44.8711 4.22876 1.33146e-19)
(45.0118 4.61643 3.68186e-20)
(45.1974 5.0544 -3.90726e-19)
(45.3644 5.52474 -2.60948e-19)
(45.5236 6.02048 2.79854e-21)
(45.6768 6.52625 -6.66015e-20)
(45.8191 7.04749 0)
(45.954 7.58059 -2.92966e-19)
(46.0779 8.12325 2.36072e-21)
(46.2019 8.68852 6.45422e-20)
(46.3945 9.30143 7.27744e-20)
(46.5907 9.9428 1.86779e-19)
(46.6734 10.5152 0)
(46.713 11.0056 1.21928e-19)
(46.8601 11.5438 6.81643e-19)
(47.0423 12.1018 6.15541e-19)
(47.1954 12.5922 -3.21995e-19)
(47.3505 13.0709 6.63534e-19)
(47.5663 13.5258 -5.39497e-19)
(47.8191 14.003 -3.27274e-19)
(48.0621 14.442 0)
(48.3463 14.8124 -8.50787e-19)
(48.6442 15.1711 -5.33695e-19)
(48.9549 15.5076 5.96126e-19)
(49.2918 15.7952 -7.07482e-19)
(49.6914 16.0855 8.14365e-19)
(50.0948 16.3269 0)
(50.1922 16.3717 5.46208e-19)
(49.9273 16.249 0)
(47.9366 15.5405 7.99212e-19)
(42.0524 13.5114 -1.80386e-18)
(28.9223 8.91543 1.01472e-18)
(8.00332 1.59976 0)
(-0.808595 -0.109052 3.0175e-19)
(40.146 0.0881812 4.31724e-23)
(42.8517 -0.0597438 5.08534e-23)
(42.9195 0.369012 5.18695e-20)
(43.0111 0.39722 2.65803e-22)
(43.0922 0.688899 2.30016e-21)
(43.2486 0.802073 3.639e-22)
(43.4159 0.996155 -4.05059e-22)
(43.5838 1.2391 1.01375e-21)
(43.7692 1.46548 -1.37932e-19)
(43.9697 1.73052 -2.96916e-21)
(44.1244 1.95599 -1.68925e-21)
(44.3684 2.30195 3.88901e-21)
(44.6125 2.58865 1.33477e-19)
(44.8506 2.94425 -1.61039e-19)
(45.0901 3.35008 -2.0116e-19)
(45.2728 3.77188 1.12601e-19)
(45.5104 4.20339 -1.28833e-19)
(45.747 4.7008 -5.75443e-21)
(45.9635 5.17981 -6.77055e-21)
(46.1579 5.68934 0)
(46.3392 6.20397 -9.30158e-21)
(46.5056 6.73872 -5.15449e-21)
(46.6576 7.28675 5.76211e-21)
(46.7954 7.84275 0)
(46.9209 8.39923 0)
(47.0322 8.93702 2.65906e-19)
(47.0797 9.42947 0)
(47.1141 9.88374 -1.87024e-19)
(47.2536 10.3796 0)
(47.4468 10.9539 8.91962e-21)
(47.5819 11.4711 -3.1671e-19)
(47.6994 11.9226 2.2417e-20)
(47.8402 12.4036 -4.33241e-19)
(48.0236 12.8628 3.85402e-20)
(48.2103 13.3221 2.42037e-19)
(48.391 13.711 3.69482e-19)
(48.6254 14.0754 -1.27485e-20)
(48.8677 14.4587 0)
(49.1236 14.7975 -8.65043e-21)
(49.3971 15.0786 1.00678e-20)
(49.7119 15.3565 0)
(50.1138 15.6387 -1.26191e-20)
(50.2515 15.726 -6.01098e-20)
(50.1148 15.703 -5.10757e-19)
(48.8998 15.3496 -1.0439e-20)
(45.1407 14.1157 0)
(36.2861 11.1499 0)
(19.4677 5.38594 1.38755e-19)
(3.17257 0.537538 -1.37326e-19)
(-1.48487 -0.00218735 3.08797e-19)
(40.1371 0.105867 1.08288e-19)
(43.0326 -0.0775744 1.23414e-19)
(43.1714 0.325052 6.90583e-20)
(43.2611 0.299378 8.27083e-20)
(43.3003 0.606767 8.86956e-20)
(43.4394 0.717092 -1.07524e-19)
(43.62 0.90453 0)
(43.8118 1.07667 0)
(44.0245 1.31463 9.09516e-20)
(44.237 1.54291 2.9688e-21)
(44.5003 1.83089 -1.20683e-19)
(44.7075 2.08213 -8.70415e-21)
(44.9503 2.42238 -1.70516e-19)
(45.1856 2.73813 2.03468e-19)
(45.4367 3.06446 2.63058e-19)
(45.7311 3.43843 0)
(45.9385 3.84117 0)
(46.1306 4.2302 5.7595e-21)
(46.3729 4.70295 6.77601e-21)
(46.5798 5.18424 -2.92078e-19)
(46.791 5.70055 9.29941e-21)
(46.9916 6.22919 0)
(47.1722 6.77625 0)
(47.3382 7.32959 -6.43101e-20)
(47.4878 7.88817 -3.1435e-19)
(47.6204 8.46248 9.33198e-20)
(47.8004 9.07493 0)
(48.0141 9.72705 -2.39112e-19)
(48.1054 10.3126 0)
(48.1135 10.7775 -8.9167e-21)
(48.2019 11.2607 0)
(48.3423 11.7787 0)
(48.4634 12.2359 1.1796e-19)
(48.5704 12.6688 1.37303e-19)
(48.7216 13.0479 0)
(48.928 13.4533 0)
(49.1128 13.843 1.27412e-20)
(49.3209 14.1544 0)
(49.5399 14.4296 8.64468e-21)
(49.7744 14.7072 -3.38273e-19)
(50.1098 15.0034 3.61575e-19)
(50.234 15.1365 2.67602e-20)
(50.1794 15.1852 1.61292e-20)
(49.4597 15.0431 -5.71216e-19)
(47.1246 14.3306 -3.30328e-19)
(40.9475 12.3814 1.88584e-18)
(28.1293 8.26643 -8.47687e-19)
(8.567 2.05254 -9.71633e-19)
(-0.126131 0.221964 8.01393e-19)
(-1.825 -0.037899 0)
(40.1886 0.13382 -1.08103e-19)
(43.1852 -0.0973099 1.44972e-19)
(43.3402 0.266796 -6.77961e-20)
(43.4382 0.120432 9.74288e-20)
(43.5185 0.41786 -9.41046e-20)
(43.6805 0.49689 1.10649e-19)
(43.8663 0.696218 8.86035e-21)
(44.1157 0.870563 -9.86513e-21)
(44.3258 1.01345 -7.84669e-20)
(44.5808 1.26349 -1.38439e-20)
(44.8182 1.50431 1.284e-19)
(45.1078 1.77058 3.40263e-19)
(45.3812 2.06181 -2.23838e-19)
(45.721 2.41277 -1.86029e-19)
(45.9999 2.81984 -8.62385e-19)
(46.2551 3.23231 4.15302e-20)
(46.5748 3.67849 -4.63561e-20)
(46.8878 4.19334 4.76347e-19)
(47.1521 4.67719 6.79078e-20)
(47.4089 5.20363 2.15889e-19)
(47.6786 5.74817 0)
(47.889 6.32062 0)
(48.0773 6.90238 0)
(48.2396 7.49347 0)
(48.3752 8.08633 3.11287e-19)
(48.4887 8.66083 -8.05914e-19)
(48.5491 9.18745 0)
(48.538 9.64329 7.68389e-19)
(48.6034 10.1115 0)
(48.7597 10.6752 0)
(48.8775 11.2002 -7.88841e-19)
(48.9399 11.6286 4.39474e-19)
(49.0034 12.0557 -9.95966e-19)
(49.1312 12.456 2.87551e-19)
(49.2813 12.8826 0)
(49.3898 13.2354 0)
(49.5474 13.5285 4.42854e-19)
(49.7189 13.8379 -1.51591e-18)
(49.8969 14.1406 0)
(50.1587 14.4349 -9.914e-19)
(50.316 14.6518 1.39792e-18)
(50.3224 14.7151 -1.64726e-18)
(49.9162 14.7279 9.96783e-19)
(48.3341 14.2948 -1.16516e-18)
(43.7426 12.955 2.94859e-18)
(33.6435 9.85751 -2.58888e-18)
(16.2862 4.4438 1.6696e-18)
(2.62544 0.859418 -3.71475e-18)
(-1.8065 0.278247 4.39863e-18)
(-1.80714 0.0789623 -2.84776e-18)
(40.2029 0.0968687 -2.53705e-19)
(43.2198 -0.130769 1.73867e-20)
(43.4038 0.127428 0)
(43.511 -0.0190967 -1.78778e-19)
(43.6757 0.230222 -4.57496e-19)
(43.8155 0.291332 1.54276e-20)
(43.9977 0.498721 0)
(44.2263 0.612514 0)
(44.5118 0.830823 -2.72259e-20)
(44.7738 0.979218 3.0329e-20)
(45.0685 1.21821 -6.20029e-19)
(45.3698 1.50178 4.01017e-19)
(45.6939 1.77201 4.04641e-19)
(45.9593 2.07457 -5.28488e-19)
(46.3246 2.36956 5.72646e-19)
(46.6708 2.75296 9.24021e-20)
(46.9605 3.15509 -9.93274e-19)
(47.2357 3.56647 -1.52939e-18)
(47.5376 4.05164 0)
(47.8169 4.56187 7.312e-19)
(48.057 5.10624 8.5606e-19)
(48.3123 5.6746 0)
(48.5411 6.26325 -1.16064e-18)
(48.7423 6.86474 0)
(48.9157 7.46886 0)
(49.0564 8.07796 8.02948e-19)
(49.2022 8.71248 5.29465e-19)
(49.4049 9.40465 1.18356e-18)
(49.4979 10.0511 0)
(49.4621 10.5423 0)
(49.4546 10.9935 3.73366e-19)
(49.5044 11.4775 4.61004e-19)
(49.5694 11.917 1.62445e-18)
(49.6162 12.3356 1.20565e-20)
(49.67 12.6628 1.49604e-20)
(49.8065 12.9958 -1.57408e-18)
(49.9338 13.3475 -2.23727e-20)
(50.0691 13.642 2.03401e-18)
(50.2626 13.8982 1.17279e-18)
(50.4398 14.1823 6.17348e-19)
(50.4706 14.2779 1.46917e-18)
(50.1946 14.3264 3.91416e-20)
(49.0469 14.1192 -1.99384e-18)
(45.4989 13.1648 -1.14803e-18)
(37.5716 10.8283 -3.24839e-18)
(23.1317 6.44427 3.63911e-18)
(6.23045 1.67228 -1.62243e-18)
(-0.689583 0.505319 0)
(-2.53233 0.277192 0)
(-1.68543 0.175139 5.59752e-19)
(40.1521 0.0204409 7.77705e-19)
(43.1934 -0.173178 3.07385e-19)
(43.4019 -0.0615422 -3.44987e-19)
(43.5513 -0.145692 1.25273e-20)
(43.7979 -0.0237385 9.07952e-19)
(43.9897 -0.000438594 -1.63259e-20)
(44.1704 0.165903 0)
(44.4332 0.32449 -7.70383e-19)
(44.6996 0.42635 -2.91788e-20)
(45.0232 0.630422 -2.35322e-21)
(45.3414 0.801813 1.31791e-18)
(45.6565 1.00288 -6.89554e-19)
(46.0215 1.31211 4.06245e-21)
(46.4447 1.61188 4.60888e-19)
(46.7795 2.01638 0)
(47.1361 2.39547 0)
(47.5388 2.85048 7.67921e-19)
(47.931 3.35344 1.18476e-18)
(48.2837 3.86505 0)
(48.6209 4.41796 -7.28877e-19)
(48.9697 5.00033 -8.53177e-19)
(49.279 5.61615 -2.66904e-19)
(49.5193 6.25686 1.78581e-19)
(49.7167 6.91699 1.12024e-18)
(49.873 7.58154 3.99749e-19)
(49.9883 8.23551 4.71115e-19)
(50.0524 8.84992 -1.54207e-18)
(50.0009 9.36948 -1.15717e-18)
(49.9631 9.8399 1.43428e-18)
(50.0361 10.4049 -1.61869e-18)
(50.0999 10.9701 0)
(50.0908 11.4179 0)
(50.047 11.8228 3.93347e-20)
(50.0716 12.1623 -1.25476e-18)
(50.1682 12.5456 1.45875e-18)
(50.2066 12.8851 2.46943e-18)
(50.2807 13.1343 -9.1491e-19)
(50.418 13.3796 -2.10992e-18)
(50.585 13.7203 -2.26796e-18)
(50.6328 13.8567 -1.31714e-18)
(50.4341 13.9398 -3.11374e-20)
(49.5563 13.8553 1.73866e-18)
(46.843 13.248 0)
(40.5484 11.4475 1.13728e-18)
(28.1626 7.83808 1.28227e-18)
(9.75059 2.6106 1.42777e-18)
(1.09992 0.783462 4.79192e-18)
(-2.10333 0.359371 -1.78532e-18)
(-2.61359 0.293435 0)
(-1.42127 0.19842 0)
(39.9764 -0.155265 2.57012e-21)
(43.0737 -0.306765 -5.92863e-19)
(43.4032 -0.232342 3.55619e-19)
(43.5324 -0.239163 -8.10205e-19)
(43.7527 -0.187301 -4.92964e-19)
(43.9831 -0.247109 -1.04589e-21)
(44.2127 -0.118831 1.99839e-20)
(44.4545 -0.0275322 7.17842e-19)
(44.788 0.163973 5.67484e-20)
(45.0975 0.266466 7.32843e-20)
(45.4426 0.464617 -6.52249e-19)
(45.831 0.692888 -9.80471e-20)
(46.1929 0.867482 -9.98101e-19)
(46.5614 1.14828 -1.20025e-18)
(47.017 1.40205 1.81861e-19)
(47.4411 1.77643 -2.02856e-19)
(47.8188 2.14993 0)
(48.2186 2.58853 -1.23173e-18)
(48.6038 3.08107 0)
(48.9887 3.62327 0)
(49.3087 4.21343 0)
(49.6076 4.83591 -5.84611e-19)
(49.9047 5.49002 1.92159e-18)
(50.1602 6.16584 -1.4695e-18)
(50.3742 6.85256 0)
(50.5417 7.54629 -5.13721e-19)
(50.6615 8.24506 -1.85675e-18)
(50.8254 9.00014 -2.75591e-18)
(50.9315 9.76617 -2.16979e-18)
(50.8431 10.3706 1.53561e-18)
(50.7197 10.8403 -1.87372e-18)
(50.6216 11.3093 1.04802e-18)
(50.5868 11.7296 2.4157e-18)
(50.5586 12.1517 0)
(50.4804 12.4523 1.56272e-18)
(50.5055 12.6941 -3.3076e-18)
(50.5959 12.9735 -3.40715e-20)
(50.7297 13.3181 2.00219e-18)
(50.7985 13.4607 1.14154e-18)
(50.6582 13.5445 0)
(49.9757 13.5441 1.54827e-18)
(47.9202 13.2006 -1.7874e-18)
(42.772 11.8094 4.02047e-18)
(31.7258 8.72625 0)
(13.9369 3.84733 -5.03774e-18)
(2.82456 1.34397 1.39633e-18)
(-1.39845 0.843602 -1.56749e-18)
(-2.70269 0.635516 -1.75504e-18)
(-2.46964 0.490178 3.89919e-18)
(-1.15495 0.231894 1.52648e-21)
(39.4677 -0.480338 -5.33315e-19)
(42.945 -0.608469 6.00851e-19)
(43.4389 -0.452285 -6.96365e-19)
(43.5255 -0.452678 1.61992e-18)
(43.7107 -0.381323 -9.85997e-19)
(44.0096 -0.462534 7.10118e-20)
(44.294 -0.448921 -7.13547e-19)
(44.5584 -0.364526 0)
(44.8179 -0.331015 -9.66718e-19)
(45.2003 -0.159125 1.24064e-18)
(45.5808 -0.0662799 6.94447e-21)
(45.9653 0.0943636 -1.01441e-19)
(46.4337 0.353916 9.94764e-19)
(46.9077 0.608058 -4.96092e-20)
(47.328 0.963853 1.31185e-18)
(47.7961 1.28725 2.13814e-19)
(48.3179 1.73554 0)
(48.7908 2.20566 1.22621e-18)
(49.257 2.72553 3.11107e-18)
(49.7151 3.30425 0)
(50.1712 3.92742 0)