/*--------------------------------*- C++ -*----------------------------------*\
| =========                 |                                                 |
| \\      /  F ield         | OpenFOAM: The Open Source CFD Toolbox           |
|  \\    /   O peration     | Version:  v1912                                 |
|   \\  /    A nd           | Website:  www.openfoam.com                      |
|    \\/     M anipulation  |                                                 |
\*---------------------------------------------------------------------------*/
FoamFile
{
    version     2.0;
    format      ascii;
    class       volScalarField;
    location    "0.29";
    object      p;
}
// * * * * * * * * * * * * * * * * * * * * * * * * * * * * * * * * * * * * * //

dimensions      [0 2 -2 0 0 0 0];


internalField   nonuniform List<scalar> 
6600
(
78.1853
73.5358
71.3052
69.9052
69.1668
68.8797
68.7528
68.8828
69.4123
70.3027
71.5071
73.0102
74.8081
76.93
79.3857
82.0848
85.0524
88.3141
91.8664
95.4773
99.3677
103.848
108.364
112.763
117.163
121.715
126.271
130.735
134.989
138.953
142.525
145.548
147.944
149.506
149.952
148.935
146.139
141.257
133.942
123.762
110.213
92.7684
70.9507
43.9308
11.1209
-28.2692
-74.4075
-128.05
-191.397
-257.915
75.0626
70.0657
68.3423
66.6598
65.5204
64.8438
64.4526
64.3641
64.6195
65.1909
66.0779
67.2687
68.7388
70.4843
72.5452
74.8353
77.3429
80.0811
83.1166
86.3461
89.4292
92.7709
96.4123
100.068
103.551
106.939
110.259
113.39
116.171
118.505
120.319
121.394
121.577
120.773
118.732
115.018
109.294
101.242
90.526
76.7082
59.2488
37.577
11.3709
-20.4052
-58.1811
-102.792
-154.48
-213.339
-280.321
-348.912
70.5124
65.2732
64.1669
62.3021
60.9993
60.0715
59.4376
59.1689
59.2249
59.5844
60.2238
61.1364
62.3267
63.7889
65.488
67.3903
69.4775
71.7387
74.1586
76.7362
79.389
82.0027
84.6196
87.1556
89.6037
91.8766
93.9037
95.5761
96.7651
97.3638
97.2713
96.2903
94.1635
90.7701
85.9808
79.3076
70.4599
59.0815
44.8096
27.1946
5.73331
-20.1305
-50.8756
-87.1374
-129.443
-178.587
-234.831
-297.421
-365.525
-432.212
65.1492
59.5468
58.9582
56.8283
55.4782
54.4514
53.6681
53.2433
53.1657
53.3728
53.869
54.6344
55.6282
56.7812
58.1861
59.753
61.4339
63.2158
65.1308
67.1489
68.9407
70.6523
72.3135
73.8498
75.1292
76.1047
76.7172
76.8458
76.334
75.0753
72.9449
69.7569
65.2712
59.2822
51.5614
41.8105
29.7263
14.9431
-2.9206
-24.2988
-49.6723
-79.5359
-114.348
-154.548
-200.622
-253.288
-312.698
-377.318
-444.988
-507.673
59.0506
53.1156
52.8095
50.3448
49.0171
47.9581
47.1455
46.6451
46.4663
46.5838
46.9348
47.5237
48.3498
49.3143
50.3605
51.549
52.7925
54.0048
55.1392
56.3763
57.5514
58.4532
59.0699
59.4036
59.4394
59.0645
58.1784
56.657
54.37
51.1782
46.9405
41.4798
34.5545
25.9315
15.383
2.62535
-12.6368
-30.7336
-52.0373
-76.9502
-105.868
-139.223
-177.377
-220.633
-269.374
-324.17
-385.079
-450.361
-516.506
-573.659
52.2199
45.9523
45.8143
42.9195
41.676
40.5584
39.7172
39.1776
38.9177
38.9086
39.1298
39.5301
40.0739
40.7445
41.4237
42.1473
42.8694
43.5082
44.0476
44.413
44.5887
44.5144
44.1295
43.3133
42.0237
40.2204
37.7848
34.5741
30.4611
25.3243
18.984
11.2403
1.89613
-9.28066
-22.5237
-38.1043
-56.3047
-77.4232
-101.774
-129.694
-161.527
-197.578
-238.11
-283.365
-333.574
-389.145
-450.263
-515.088
-578.477
-628.477
44.478
37.9153
37.8044
34.7311
33.4883
32.3119
31.4329
30.7943
30.4336
30.2642
30.2405
30.3417
30.5135
30.7682
31.0262
31.2107
31.3274
31.2853
30.9805
30.5306
29.7948
28.7053
27.1788
25.1586
22.5783
19.3177
15.2803
10.3668
4.44231
-2.65241
-11.0774
-21.0102
-32.6487
-46.1896
-61.885
-79.9891
-100.742
-124.393
-151.21
-181.464
-215.389
-253.227
-295.145
-341.291
-391.857
-447.145
-507.104
-570.061
-629.736
-671.214
35.9145
29.2937
28.764
25.6752
24.4654
23.2066
22.1819
21.4308
20.8548
20.4394
20.1373
19.8733
19.6092
19.3341
19.0283
18.5886
18.0097
17.2393
16.1908
14.8054
13.0382
10.8194
8.15802
4.8885
0.923441
-3.79242
-9.3766
-15.9565
-23.6687
-32.6279
-43.0005
-54.9645
-68.6989
-84.3878
-102.22
-122.421
-145.211
-170.803
-199.392
-231.177
-266.341
-305.011
-347.309
-393.335
-443.237
-497.338
-555.353
-615.333
-670.16
-702.469
25.5054
19.6183
18.8582
15.8236
14.6106
13.2672
12.098
11.1224
10.3192
9.57668
8.85692
8.14374
7.39481
6.56731
5.62093
4.49111
3.14541
1.55844
-0.42689
-2.81349
-5.54795
-8.81334
-12.7062
-17.2544
-22.5636
-28.766
-35.9139
-44.1215
-53.5115
-64.2243
-76.4004
-90.175
-105.704
-123.158
-142.719
-164.548
-188.817
-215.689
-245.321
-277.853
-313.391
-352.055
-393.874
-438.904
-487.276
-539.345
-594.833
-650.894
-700.05
-723.979
14.0823
8.86381
8.0345
5.09463
3.8389
2.35686
1.03508
-0.145766
-1.26866
-2.34338
-3.44313
-4.63916
-5.92255
-7.36503
-8.99833
-10.8612
-13.0156
-15.465
-18.276
-21.6129
-25.5354
-30.002
-35.0811
-40.9283
-47.6118
-55.1753
-63.7735
-73.5021
-84.4598
-96.7379
-110.456
-125.763
-142.791
-161.656
-182.49
-205.432
-230.607
-258.141
-288.142
-320.708
-355.912
-393.778
-434.359
-477.679
-523.823
-572.962
-625.082
-676.952
-720.646
-738.383
1.20376
-3.09416
-3.75357
-6.50517
-7.80447
-9.39515
-10.8308
-12.2689
-13.6273
-15.1151
-16.6882
-18.3567
-20.2067
-22.2376
-24.5171
-27.0997
-30.0481
-33.4121
-37.2519
-41.5758
-46.4303
-51.984
-58.3396
-65.4172
-73.3582
-82.2966
-92.271
-103.365
-115.679
-129.306
-144.353
-160.899
-179.053
-198.927
-220.601
-244.173
-269.736
-297.363
-327.133
-359.097
-393.294
-429.776
-468.48
-509.381
-552.6
-598.436
-646.221
-693.276
-731.855
-745.934
-12.3355
-16.1135
-16.5387
-18.9621
-20.2227
-21.9491
-23.5392
-25.1085
-26.8476
-28.6182
-30.5595
-32.7155
-35.0701
-37.7083
-40.6583
-43.9528
-47.6558
-51.8068
-56.4962
-61.8281
-67.8285
-74.4553
-81.8204
-90.1134
-99.3276
-109.468
-120.636
-132.944
-146.446
-161.2
-177.269
-194.747
-213.697
-234.189
-256.299
-280.071
-305.566
-332.828
-361.868
-392.741
-425.449
-459.949
-496.275
-534.331
-573.927
-615.638
-657.789
-697.823
-728.67
-741.103
-26.2446
-29.6074
-29.9724
-32.1756
-33.3422
-35.0603
-36.8355
-38.6184
-40.5292
-42.6853
-45.0425
-47.6063
-50.4667
-53.6247
-57.1341
-61.0721
-65.4871
-70.4336
-75.9753
-82.1542
-89.0009
-96.6569
-105.169
-114.472
-124.679
-135.914
-148.198
-161.526
-175.977
-191.615
-208.49
-226.635
-246.097
-266.913
-289.107
-312.718
-337.76
-364.26
-392.227
-421.593
-452.353
-484.505
-517.9
-552.385
-588.243
-624.681
-659.654
-689.446
-708.058
-717.809
-41.0236
-43.4971
-43.7448
-45.6982
-46.9152
-48.73
-50.5124
-52.5744
-54.7208
-57.0891
-59.7327
-62.6585
-65.9069
-69.5375
-73.5961
-78.1169
-83.153
-88.7455
-95.0146
-102.023
-109.779
-118.266
-127.566
-137.805
-149.042
-161.209
-174.34
-188.543
-203.811
-220.142
-237.577
-256.132
-275.824
-296.684
-318.719
-341.9
-366.236
-391.722
-418.293
-445.919
-474.48
-503.851
-534.029
-564.794
-596.166
-626.5
-653.632
-673.295
-681.069
-686.749
-56.1685
-57.9969
-57.8977
-59.5975
-60.6681
-62.4648
-64.387
-66.519
-68.9386
-71.6165
-74.5305
-77.7784
-81.3799
-85.3759
-89.8035
-94.7645
-100.304
-106.462
-113.295
-120.907
-129.346
-138.611
-148.765
-159.847
-171.798
-184.73
-198.666
-213.566
-229.453
-246.342
-264.207
-283.048
-302.831
-323.543
-345.206
-367.794
-391.23
-415.495
-440.597
-466.356
-492.625
-519.246
-545.921
-573.123
-599.562
-623.664
-643.828
-657.377
-663.442
-665.26
-71.1325
-71.7758
-71.817
-73.4108
-74.5428
-76.3848
-78.379
-80.6143
-83.1112
-85.9024
-89.0417
-92.4709
-96.2733
-100.518
-105.271
-110.568
-116.473
-123.024
-130.315
-138.501
-147.5
-157.338
-168.052
-179.747
-192.481
-206.163
-220.767
-236.305
-252.729
-270.023
-288.183
-307.169
-326.952
-347.478
-368.711
-390.631
-413.169
-436.247
-459.754
-483.668
-507.768
-531.745
-555.673
-579.305
-601.546
-621.206
-636.113
-644.185
-650.319
-650.804
-86.1538
-85.9517
-85.58
-86.8738
-87.9654
-89.8799
-91.9518
-94.3163
-96.9959
-99.9522
-103.193
-106.782
-110.745
-115.092
-119.935
-125.362
-131.448
-138.248
-145.751
-154.135
-163.574
-173.896
-185.236
-197.637
-210.931
-225.144
-240.316
-256.414
-273.389
-291.156
-309.655
-328.815
-348.567
-368.866
-389.673
-410.951
-432.624
-454.549
-476.717
-498.954
-521.178
-543.248
-565.072
-585.73
-604.548
-620.309
-631.303
-636.687
-638.948
-639.955
-99.9227
-99.2228
-98.9212
-100.119
-101.181
-103.173
-105.313
-107.721
-110.446
-113.473
-116.773
-120.329
-124.192
-128.509
-133.345
-138.743
-144.823
-151.681
-159.353
-167.983
-177.604
-188.212
-199.882
-212.657
-226.466
-241.357
-257.225
-273.91
-291.397
-309.618
-328.454
-347.862
-367.733
-387.951
-408.469
-429.247
-450.217
-471.302
-492.287
-513.271
-534.015
-554.64
-574.465
-592.758
-608.685
-620.715
-627.284
-631.69
-632.185
-633.043
-112.808
-111.106
-111.097
-112.372
-113.587
-115.711
-118.025
-120.631
-123.494
-126.58
-129.871
-133.405
-137.212
-141.311
-145.856
-150.96
-156.751
-163.342
-170.82
-179.229
-188.745
-199.643
-211.764
-224.945
-239.261
-254.703
-271.076
-288.452
-306.65
-325.539
-344.989
-364.809
-384.937
-405.269
-425.657
-446.114
-466.595
-486.966
-507.245
-527.183
-546.754
-565.698
-583.73
-599.989
-612.828
-620.81
-625.685
-627.26
-628.037
-628.421
-124.205
-122.37
-122.397
-123.727
-125.267
-127.657
-130.224
-133.068
-136.102
-139.261
-142.49
-145.829
-149.327
-153.056
-157.185
-161.802
-167.071
-173.153
-180.204
-188.405
-197.942
-208.54
-220.427
-233.963
-248.74
-264.716
-281.862
-300.096
-319.211
-338.913
-359.091
-379.604
-400.24
-420.902
-441.491
-461.817
-482.048
-502.158
-521.844
-541.042
-559.429
-576.777
-593.012
-607.022
-616.829
-621.695
-623.935
-624.675
-625.237
-625.386
-132.921
-131.499
-132.452
-134.099
-135.888
-138.673
-141.648
-144.862
-148.186
-151.529
-154.839
-158.144
-161.408
-164.735
-168.216
-172.074
-176.506
-181.728
-187.927
-195.253
-203.885
-214.207
-226.175
-239.801
-254.769
-271.322
-289.41
-308.552
-328.644
-349.594
-370.981
-392.533
-414.077
-435.412
-456.453
-477.136
-497.13
-516.892
-536.318
-554.659
-571.858
-587.891
-601.991
-612.636
-618.871
-622.146
-622.59
-623.097
-623.471
-623.563
-139.238
-138.162
-140.497
-142.859
-145.424
-148.858
-152.389
-156.256
-159.986
-163.609
-167.103
-170.331
-173.285
-176.053
-178.741
-181.657
-184.996
-189.037
-194.065
-200.371
-208.297
-217.761
-228.96
-241.998
-257.128
-274.218
-293.171
-313.722
-335.318
-357.64
-380.468
-403.479
-426.329
-448.774
-470.599
-491.662
-512.111
-531.75
-550.429
-567.828
-584.094
-598.53
-609.613
-616.499
-620.264
-621.476
-621.894
-622.265
-622.54
-622.676
-143.883
-144.042
-146.78
-149.806
-153.359
-157.799
-162.17
-166.741
-171.305
-175.528
-179.35
-182.793
-185.714
-188.074
-190.043
-191.897
-193.895
-196.391
-199.774
-204.406
-210.558
-218.605
-229.018
-241.676
-256.859
-274.063
-293.477
-315.062
-338.322
-362.663
-387.577
-412.553
-437.199
-461.165
-484.229
-506.401
-527.334
-546.727
-564.566
-581.1
-595.922
-607.93
-616.009
-620.212
-621.85
-622.274
-622.238
-622.174
-622.126
-622.18
-145.036
-147.381
-150.787
-154.945
-159.686
-165.307
-171.054
-176.843
-182.464
-187.54
-191.972
-195.71
-198.71
-200.813
-202.035
-202.631
-203.081
-203.735
-205.054
-207.551
-211.774
-218.436
-227.125
-238.395
-252.718
-270.313
-290.456
-313.066
-338.031
-364.497
-391.768
-419.295
-446.432
-472.663
-497.549
-520.931
-542.601
-562.164
-579.43
-594.811
-607.415
-616.228
-621.624
-624.058
-624.372
-623.981
-623.182
-622.185
-621.555
-621.259
-142.063
-147.433
-151.713
-157.508
-163.784
-171.065
-178.189
-185.464
-192.58
-199.07
-204.708
-209.144
-212.679
-214.881
-215.72
-215.374
-214.283
-212.898
-211.778
-211.596
-213.016
-216.658
-223.297
-233.164
-246.336
-263.388
-283.585
-307.084
-333.628
-362.567
-392.96
-423.706
-454.044
-483.075
-510.478
-536.126
-559.071
-578.725
-595.586
-608.921
-617.939
-623.658
-626.411
-627.03
-626.238
-624.838
-623.109
-621.463
-620.288
-619.493
-135.637
-144.193
-149.563
-157.334
-165.289
-174.331
-183.236
-192.477
-201.516
-210.149
-217.683
-223.671
-227.874
-230.505
-231.18
-229.976
-227.26
-223.665
-219.795
-216.45
-214.543
-215.038
-218.564
-225.54
-236.799
-252.585
-272.822
-297.194
-325.26
-356.737
-390.37
-424.97
-459.228
-492.257
-522.912
-550.968
-576.001
-596.595
-612.329
-621.723
-626.728
-628.903
-629.382
-628.598
-626.984
-624.779
-622.417
-620.056
-618.331
-617.219
-128.236
-137.997
-145.004
-154.398
-164.019
-174.702
-185.61
-197.312
-208.604
-219.43
-229.462
-237.906
-243.732
-247.58
-248.836
-247.446
-243.651
-238.047
-231.325
-224.445
-218.432
-214.375
-213.663
-217.472
-225.873
-239.404
-258.333
-282.51
-311.644
-345.533
-383.141
-422.667
-462.113
-500.248
-535.628
-566.919
-594.622
-615.896
-627.767
-632.303
-632.606
-631.826
-630.893
-629.622
-627.767
-625.531
-622.928
-620.214
-618.262
-616.966
-121.072
-130.132
-138.563
-148.998
-159.821
-172.228
-185.312
-199.34
-213.087
-226.583
-239.618
-251.378
-260.646
-266.169
-268.665
-267.636
-263.088
-255.673
-246.09
-235.384
-224.899
-216.281
-210.746
-209.229
-213.035
-223.357
-240.262
-263.56
-293.514
-329.376
-370.717
-415.505
-461.268
-505.715
-548.084
-583.655
-613.894
-633.183
-640.391
-639.767
-636.601
-633.976
-632.269
-630.95
-629.562
-627.805
-625.197
-622.225
-620.135
-618.91
-118.341
-121.038
-130.414
-141.573
-153.236
-167.035
-182.004
-198.033
-214.255
-230.678
-247.252
-263.043
-276.227
-284.854
-289.673
-290.089
-286.016
-277.975
-266.589
-252.105
-236.274
-221.156
-209.207
-201.634
-200.15
-206.006
-219.525
-240.533
-269.869
-307.676
-352.763
-403.612
-457.406
-512.514
-565.174
-608.348
-634.538
-648.04
-649.963
-645.552
-640.333
-636.504
-634.084
-632.585
-631.476
-629.853
-627.364
-624.536
-622.61
-621.666
-134.883
-115.194
-122.99
-133.492
-145.606
-160.444
-176.614
-193.982
-212.549
-231.231
-252.077
-272.08
-289.48
-302.903
-310.972
-313.572
-311.248
-303.629
-291.027
-273.771
-252.909
-231.555
-212.164
-197.2
-188.337
-187.541
-196.422
-215.11
-243.624
-282.8
-331.512
-388.34
-450.357
-514.566
-575.2
-625.787
-651.299
-659.099
-656.475
-650.116
-643.881
-638.939
-635.508
-633.603
-632.387
-630.776
-628.394
-625.661
-624.074
-623.55
74.3666
69.6594
67.3347
66.064
65.566
65.4304
65.454
65.7798
66.5686
67.7676
69.3685
71.3769
73.7713
76.54
79.6896
83.2305
87.1852
91.5306
96.2442
101.325
106.741
112.442
118.356
124.404
130.588
136.891
143.234
149.447
155.347
160.864
165.875
170.234
173.729
176.146
177.202
176.557
173.868
168.793
160.966
149.916
135.124
116.054
92.1613
62.5597
26.7328
-16.0971
-66.1008
-124.328
-193.02
-261.219
71.1898
66.0321
64.3764
62.7696
61.8025
61.2543
61.0178
61.1448
61.6849
62.6395
64.004
65.7328
67.8275
70.2809
73.0933
76.2669
79.8149
83.7166
87.9572
92.5093
97.3395
102.415
107.684
112.989
118.183
123.344
128.557
133.65
138.299
142.416
145.886
148.524
150.159
150.584
149.454
146.415
141.138
133.277
122.459
108.201
89.9562
67.1997
39.2676
5.49116
-34.7229
-82.1425
-136.908
-199.424
-270.962
-340.157
66.5601
61.0724
60.1629
58.2553
57.0775
56.2629
55.8265
55.8162
56.2088
56.9701
58.1361
59.6555
61.519
63.7329
66.2886
69.1679
72.3752
75.8874
79.6858
83.7415
88.0069
92.4327
96.9704
101.495
105.905
110.157
114.242
118.043
121.321
123.929
125.752
126.582
126.202
124.407
120.889
115.28
107.239
96.4133
82.4284
64.8226
43.0411
16.5328
-15.2297
-52.8316
-96.8588
-148.012
-206.447
-271.66
-343.041
-409.173
60.7815
55.1948
54.7485
52.4662
51.2404
50.2894
49.7235
49.5921
49.8617
50.5076
51.516
52.8517
54.5314
56.5465
58.8675
61.4811
64.3787
67.5262
70.8923
74.4466
78.1351
81.9033
85.7327
89.5488
93.123
96.3255
99.171
101.61
103.471
104.543
104.645
103.578
101.124
97.0309
91.0047
82.7229
71.8564
58.0443
40.9026
19.9977
-5.16933
-35.0981
-70.1747
-110.894
-157.775
-211.441
-271.94
-337.826
-407.19
-467.977
54.5086
48.3225
48.103
45.5994
44.3082
43.3078
42.6445
42.4037
42.5649
43.0652
43.9077
45.0699
46.5593
48.3467
50.4082
52.732
55.2881
58.0392
60.9496
63.9792
67.0545
70.1083
73.0728
75.9155
78.5881
80.9296
82.7534
83.8645
84.1489
83.5364
81.8627
78.8832
74.3364
67.9648
59.4917
48.6144
35.0214
18.371
-1.6938
-25.5464
-53.593
-86.2125
-123.739
-166.58
-215.106
-269.745
-330.462
-395.607
-461.709
-515.387
47.6576
40.7426
40.3987
37.5888
36.2461
35.1959
34.4848
34.1156
34.1225
34.4718
35.1293
36.0842
37.3268
38.8298
40.575
42.5449
44.6981
46.9895
49.381
51.831
54.2595
56.5984
58.8156
60.7896
62.3563
63.4542
64.0053
63.8798
62.8412
60.6658
57.2125
52.2987
45.6972
37.1558
26.3845
13.1191
-2.90622
-21.9944
-44.4628
-70.6226
-100.771
-135.193
-174.128
-217.877
-266.726
-320.949
-380.453
-443.451
-504.892
-550.023
39.1631
32.2119
31.6197
28.5245
27.1633
26.0324
25.1951
24.7121
24.5543
24.6906
25.124
25.8108
26.7388
27.8911
29.2499
30.7842
32.4485
34.208
36.0125
37.8131
39.5327
41.0902
42.4065
43.4026
43.991
44.0601
43.443
41.9017
39.3324
35.6241
30.5456
23.8722
15.3894
4.87698
-7.88521
-23.1443
-41.1378
-62.1112
-86.3134
-113.974
-145.309
-180.494
-219.709
-263.175
-311.129
-363.847
-420.881
-480.349
-536.245
-571.631
29.2583
22.4293
21.6294
18.3806
17.0152
15.7605
14.7744
14.1035
13.7443
13.6461
13.7721
14.1233
14.676
15.4154
16.3105
17.3264
18.429
19.5879
20.7475
21.85
22.8299
23.6145
24.1447
24.2653
23.7831
22.583
20.6459
17.8925
14.0448
8.87078
2.24135
-6.03544
-16.1387
-28.2481
-42.5927
-59.3597
-78.7367
-100.914
-126.072
-154.376
-185.967
-220.966
-259.454
-301.551
-347.466
-397.602
-451.646
-506.742
-556.042
-581.723
17.4278
11.3133
10.4651
7.11402
5.75528
4.32914
3.16696
2.32627
1.69834
1.26714
1.0354
0.977872
1.08053
1.32874
1.6899
2.14367
2.65076
3.16104
3.62838
4.00029
4.20708
4.1569
3.74392
2.88376
1.48429
-0.575271
-3.53513
-7.60796
-12.8308
-19.2914
-27.2052
-36.7508
-48.1123
-61.4484
-76.8919
-94.6024
-114.728
-137.412
-162.779
-190.926
-221.931
-255.835
-292.684
-332.572
-375.626
-422.149
-472.37
-522.82
-565.806
-583.338
4.3655
-1.1854
-2.01061
-5.22587
-6.65258
-8.23274
-9.58913
-10.7608
-11.7182
-12.5097
-13.153
-13.6718
-14.0848
-14.3908
-14.6225
-14.7937
-14.9342
-15.0925
-15.3218
-15.6752
-16.2201
-17.0337
-18.195
-19.8581
-22.2386
-25.4453
-29.4804
-34.4418
-40.5851
-48.0966
-57.0566
-67.5971
-79.8297
-93.8858
-109.916
-128.021
-148.302
-170.843
-195.71
-222.963
-252.63
-284.736
-319.252
-356.163
-395.607
-438.068
-483.106
-528.299
-566.583
-580.398
-9.70505
-14.8887
-15.5789
-18.7044
-20.1378
-22.0075
-23.6312
-25.0771
-26.4446
-27.6886
-28.8375
-29.8932
-30.8543
-31.7713
-32.6419
-33.4524
-34.2554
-35.0934
-36.0115
-37.0678
-38.3398
-39.9172
-41.9157
-44.424
-47.4969
-51.2695
-55.982
-61.8341
-68.8398
-77.0533
-86.6457
-97.7422
-110.444
-124.835
-140.987
-158.97
-178.839
-200.652
-224.441
-250.213
-277.961
-307.633
-339.193
-372.599
-407.76
-445.305
-483.987
-521.898
-553.223
-567.165
-24.9978
-29.4547
-30.1231
-33.2065
-34.7505
-36.8423
-38.7855
-40.6228
-42.4127
-44.1777
-45.9197
-47.5774
-49.1457
-50.7114
-52.2541
-53.7468
-55.2233
-56.7245
-58.2975
-59.9984
-61.8872
-64.0468
-66.5542
-69.5925
-73.352
-77.9112
-83.2677
-89.5021
-96.8566
-105.484
-115.416
-126.726
-139.487
-153.754
-169.58
-186.993
-206.024
-226.662
-248.886
-272.677
-297.989
-324.788
-352.948
-382.247
-412.929
-444.471
-475.365
-502.519
-520.65
-532.774
-41.0397
-45.0812
-45.6025
-48.5113
-50.1515
-52.5717
-54.8483
-57.1378
-59.448
-61.8052
-64.1642
-66.5228
-68.8173
-71.0282
-73.2694
-75.4809
-77.6399
-79.7833
-81.961
-84.2286
-86.663
-89.3518
-92.4101
-95.9178
-99.932
-104.562
-110.07
-116.635
-124.226
-132.894
-142.789
-153.973
-166.458
-180.283
-195.462
-211.972
-229.781
-248.87
-269.201
-290.704
-313.314
-336.891
-361.219
-386.244
-411.663
-436.44
-458.932
-475.496
-481.7
-488.06
-57.6555
-60.9533
-61.5066
-64.4497
-66.2544
-68.9579
-71.6979
-74.5774
-77.5319
-80.5608
-83.6201
-86.724
-89.7888
-92.6972
-95.5728
-98.493
-101.328
-104.081
-106.797
-109.534
-112.352
-115.324
-118.547
-122.178
-126.392
-131.289
-136.836
-143.144
-150.472
-158.943
-168.534
-179.288
-191.238
-204.346
-218.58
-233.912
-250.305
-267.675
-285.918
-304.96
-324.659
-344.886
-365.44
-386.218
-406.253
-424.362
-439.086
-448.62
-454.335
-456.601
-74.5258
-76.8969
-77.4918
-80.4101
-82.4897
-85.7122
-88.923
-92.3659
-96.047
-99.861
-103.759
-107.676
-111.596
-115.418
-118.982
-122.556
-126.042
-129.387
-132.602
-135.742
-138.858
-142.041
-145.409
-149.065
-153.041
-157.431
-162.535
-168.558
-175.474
-183.353
-192.351
-202.469
-213.645
-225.871
-239.082
-253.171
-268.03
-283.57
-299.711
-316.326
-333.336
-350.526
-367.562
-384.069
-399.492
-412.683
-422.142
-426.816
-432.372
-433.905
-90.8173
-92.2653
-93.026
-96.138
-98.5397
-102.231
-106.117
-110.307
-114.797
-119.499
-124.328
-129.185
-134.053
-138.851
-143.352
-147.572
-151.717
-155.606
-159.269
-162.701
-165.962
-169.115
-172.238
-175.504
-179.128
-183.233
-187.806
-192.968
-199.004
-206.096
-214.253
-223.507
-233.851
-245.14
-257.242
-270.052
-283.468
-297.36
-311.566
-326.025
-340.59
-354.961
-368.971
-382.338
-394.237
-403.309
-408.589
-412.657
-414.725
-416.787
-105.929
-106.656
-107.615
-110.89
-113.744
-118.184
-122.744
-127.789
-133.24
-138.952
-144.824
-150.74
-156.652
-162.519
-168.145
-173.232
-178.109
-182.617
-186.722
-190.434
-193.789
-196.835
-199.702
-202.518
-205.395
-208.447
-211.914
-216.121
-221.17
-227.13
-234.209
-242.477
-251.83
-262.184
-273.36
-285.137
-297.324
-309.759
-322.385
-335.075
-347.573
-359.564
-371.013
-381.65
-390.655
-396.845
-399.905
-402.545
-404.001
-405.36
-119.279
-119.134
-120.68
-124.353
-127.692
-132.91
-138.37
-144.481
-151.082
-158.042
-165.197
-172.391
-179.471
-186.418
-193.197
-199.475
-205.154
-210.375
-214.96
-218.94
-222.29
-225.069
-227.361
-229.343
-231.256
-233.367
-235.779
-238.554
-242.012
-246.54
-252.282
-259.345
-267.783
-277.355
-287.755
-298.716
-309.987
-321.455
-332.983
-344.371
-355.044
-364.77
-373.875
-381.862
-387.91
-391.585
-394.731
-395.81
-396.997
-397.641
-129.888
-129.56
-131.569
-135.663
-139.85
-146.069
-152.462
-159.747
-167.646
-175.956
-184.533
-193.266
-201.923
-210.318
-218.392
-225.923
-232.61
-238.747
-243.993
-248.346
-251.771
-254.291
-256.034
-257.192
-257.992
-258.539
-259.077
-260.107
-261.927
-264.66
-268.679
-274.305
-281.58
-290.397
-300.376
-311.026
-322.001
-333.005
-343.907
-354.132
-363.009
-371.141
-377.871
-382.503
-385.184
-387.634
-389.399
-390.812
-391.929
-392.308
-136.799
-137.209
-139.927
-144.701
-149.614
-156.958
-164.43
-173.115
-182.514
-192.412
-202.675
-213.149
-223.613
-233.81
-243.558
-252.678
-260.792
-267.881
-273.924
-278.765
-282.353
-284.682
-285.794
-285.815
-285.088
-284.032
-282.954
-281.902
-281.284
-281.7
-283.573
-287.266
-293.183
-301.275
-311.086
-321.989
-333.272
-344.686
-355.456
-364.491
-372.431
-378.938
-382.597
-383.479
-383.589
-384.201
-385.686
-387.531
-388.836
-389.282
-139.978
-141.83
-145.169
-150.78
-156.795
-165.246
-173.864
-184.046
-195.022
-206.619
-218.725
-231.154
-243.68
-256
-267.838
-278.979
-288.956
-297.446
-304.769
-310.453
-314.458
-316.777
-317.383
-316.451
-314.298
-311.249
-307.562
-303.824
-300.633
-298.321
-297.387
-298.534
-302.366
-309.289
-319.068
-330.8
-343.871
-356.72
-367.344
-376.299
-383.627
-387.561
-387.985
-386.364
-384.742
-384.143
-384.854
-386.361
-387.6
-388.277
-139.013
-143.101
-147.328
-153.891
-160.957
-170.684
-180.453
-192.179
-204.814
-218.305
-232.534
-247.21
-262.082
-276.831
-291.12
-304.682
-317.084
-327.742
-336.627
-343.478
-348.247
-350.795
-351.072
-349.159
-345.28
-340.055
-334.008
-327.476
-320.824
-314.896
-310.504
-308.29
-309.083
-313.855
-323.184
-336.706
-352.471
-367.304
-380.04
-390.164
-395.917
-396.883
-394.931
-392.136
-389.62
-387.89
-386.848
-386.605
-386.936
-387.612
-134.701
-141.211
-146.114
-153.853
-162.19
-172.735
-183.97
-197.18
-211.459
-226.908
-243.322
-260.413
-277.929
-295.529
-312.733
-329.185
-344.511
-357.962
-368.988
-377.829
-384.018
-387.305
-387.662
-385.114
-379.945
-372.539
-363.309
-352.976
-342.47
-332.449
-323.611
-316.941
-313.443
-314.481
-322.066
-336.37
-355.839
-376.591
-394.599
-405.076
-407.768
-406.393
-403.453
-399.898
-396.336
-392.654
-389.166
-386.436
-385.066
-385.255
-127.906
-136.159
-141.79
-150.78
-160.133
-171.534
-184.198
-198.674
-214.52
-231.935
-250.648
-270.431
-290.866
-311.591
-332.204
-352.113
-370.879
-387.828
-402.13
-413.624
-421.757
-426.388
-427.332
-424.468
-417.922
-408.208
-396.201
-382.39
-367.269
-351.882
-337.492
-325.128
-315.699
-311.147
-314.259
-327.88
-351.663
-380.739
-406.564
-418.801
-418.848
-415.445
-411.109
-406.279
-400.655
-394.702
-388.62
-383.158
-379.972
-379.172
-118.89
-128.899
-134.68
-144.646
-154.849
-167.107
-180.893
-196.632
-214.05
-233.31
-254.159
-276.371
-299.803
-324.019
-348.408
-372.398
-395.348
-416.555
-434.995
-449.832
-461.065
-468.1
-470.574
-468.235
-461.123
-449.606
-434.33
-416.066
-395.811
-374.841
-353.992
-334.259
-317.175
-304.721
-300.154
-309.319
-334.111
-372.479
-411.864
-430.635
-429.18
-421.642
-416.185
-409.303
-401.517
-393.327
-384.887
-377.151
-372.034
-369.587
-108.134
-119.537
-125.545
-136.166
-146.796
-159.75
-174.301
-191.05
-209.774
-230.659
-253.627
-278.49
-304.869
-332.515
-360.97
-389.483
-417.258
-443.491
-467.095
-486.787
-502.047
-512.323
-517.293
-516.346
-509.264
-496.17
-478.083
-456.071
-430.753
-403.246
-375.005
-347.162
-320.751
-297.585
-281.937
-281.329
-303.022
-345.257
-396.514
-427.92
-435.402
-427.212
-421.595
-415.369
-407.078
-396.75
-385.17
-374.234
-366.602
-362.324
-97.0484
-108.658
-115.021
-125.847
-136.579
-149.759
-164.72
-182.139
-201.819
-224.124
-248.85
-276
-305.453
-336.632
-369.141
-402.405
-435.565
-467.6
-497.285
-522.997
-543.446
-558.402
-567.065
-569.015
-563.501
-550.349
-529.98
-503.448
-472.242
-438.231
-402.599
-366.001
-328.721
-292.385
-261.952
-247.5
-258.618
-295.551
-350.941
-399.615
-425.045
-435.595
-438.495
-434.615
-426.13
-414.338
-399.592
-384.743
-373.866
-367.422
-87.1319
-96.8848
-103.991
-114.482
-125.031
-138.195
-153.088
-170.65
-190.734
-213.82
-240.136
-269.408
-301.456
-336.077
-372.69
-410.825
-449.704
-488.162
-524.749
-557.702
-585.126
-606.132
-619.858
-625.996
-623.346
-610.897
-588.771
-559.078
-523.094
-482.166
-438.261
-392.408
-344.459
-293.905
-248.302
-214.745
-209.779
-235.887
-284.413
-354.94
-411.98
-448.632
-465.621
-466.435
-458.706
-445.282
-427.807
-408.884
-394.609
-386.94
-83.2176
-84.6234
-93.0827
-102.568
-112.721
-125.472
-139.965
-157.265
-177.286
-200.732
-227.724
-258.68
-293.152
-330.66
-371.104
-414.074
-458.997
-504.534
-548.599
-589.709
-625.293
-654.115
-674.905
-686.565
-688.664
-679.412
-657.988
-625.351
-583.361
-535.167
-483.008
-428.875
-371.321
-306.715
-248.089
-201.426
-183.567
-199.144
-242.053
-314.4
-392.182
-451.451
-478.577
-486.023
-485.111
-474.607
-457.312
-437.563
-422.059
-414.452
-98.1707
-75.922
-82.8746
-91.3136
-101.231
-113.407
-127.22
-143.864
-163.36
-186.664
-214.276
-245.863
-281.804
-321.947
-365.888
-413.116
-463.965
-516.552
-567.819
-617.402
-661.974
-700.092
-730.28
-750.252
-758.924
-753.768
-733.274
-698.493
-653.409
-599.688
-538.888
-475.047
-409.438
-340.793
-270.058
-217.214
-180.783
-186.653
-229.144
-301.14
-382.876
-447.498
-475.484
-483.157
-487.47
-483.512
-470.738
-453.374
-440.593
-435.076
-80.1258
-63.398
-71.3828
-80.6654
-90.9164
-102.459
-115.912
-132.274
-151.61
-174.69
-202.103
-234.169
-271.752
-314.989
-363.488
-416.58
-473.675
-534.671
-596.871
-657.302
-713.626
-761.962
-801.485
-828.397
-842.292
-840.575
-821.574
-786.437
-738.368
-674.916
-605.347
-535.705
-454.151
-374.602
-305.367
-254.765
-229.544
-234.285
-267.841
-324.772
-395.369
-448.403
-471.792
-477.362
-478.31
-474.162
-465.196
-453.836
-446.882
-444.732
-66.6646
-63.5787
-68.2499
-75.7493
-85.8901
-97.7375
-112.254
-129.682
-150.398
-175.651
-206.07
-242.62
-285.329
-334.265
-389.488
-451.379
-518.233
-589.843
-663.381
-732.991
-797.701
-853.014
-898.022
-930.66
-945.496
-938.582
-906.552
-854.11
-786.309
-713.287
-629.635
-539.243
-455.424
-382.904
-325.459
-287.358
-277.551
-288.083
-319.189
-365.293
-416.665
-451.631
-466.05
-467.356
-464.516
-458.785
-451.769
-447.134
-445.763
-446.637
-57.4609
-62.7397
-68.0034
-75.57
-85.7505
-98.5953
-114.915
-134.623
-158.835
-188.947
-225.202
-268.471
-318.717
-376.296
-442.147
-516.687
-596.918
-678.416
-760.754
-840.587
-912.998
-976.141
-1026.06
-1058.91
-1063.92
-1038.06
-982.941
-910.18
-820.248
-727.858
-637.581
-553.598
-476.77
-414.06
-369.397
-342.414
-335.435
-344.702
-366.321
-396.951
-428.246
-449.25
-457.039
-454.713
-449.088
-444.231
-441.991
-442.499
-443.884
-446.083
-50.9167
-57.9471
-64.6751
-73.1569
-84.1707
-98.4853
-116.972
-140.464
-169.842
-206.148
-249.875
-301.375
-361.491
-431.857
-512.388
-601.21
-695.288
-791.907
-889.15
-983.311
-1066.04
-1135.59
-1185.03
-1206.52
-1187.86
-1136.5
-1052.06
-957.349
-858.657
-761.842
-670.175
-587.614
-518.363
-461.862
-422.596
-400.195
-392.416
-397.071
-409.854
-426.712
-442.074
-450.711
-451.631
-446.556
-440.26
-436.848
-437.16
-440.313
-442.952
-444.327
-42.9102
-49.7985
-57.6293
-67.3195
-79.8076
-96.403
-117.565
-144.83
-179.957
-222.626
-274.265
-336.15
-410.079
-495.508
-591.965
-699.066
-815.314
-936.324
-1055.29
-1162.96
-1254.38
-1323.03
-1359.46
-1357.79
-1309.27
-1227.57
-1129.28
-1022.25
-916.919
-813.385
-721.075
-639.105
-571.899
-519.287
-481.421
-458.381
-446.753
-444.136
-447.197
-452.386
-456.198
-456.3
-452.133
-445.239
-439.112
-436.7
-437.984
-441.082
-443.444
-444.14
-34.1728
-40.5263
-48.4131
-58.7572
-72.5116
-91.015
-115.206
-146.518
-187.296
-238.299
-300.749
-375.52
-463.385
-565.383
-684.057
-820.809
-970.575
-1120.46
-1256.3
-1373.24
-1466.35
-1524.85
-1539.72
-1511.02
-1444.85
-1344.37
-1230.49
-1109.79
-992.19
-882.191
-783.963
-702.084
-634.177
-581.234
-541.489
-514.105
-496.747
-486.371
-480.65
-476.441
-471.856
-465.816
-458.448
-450.632
-444.257
-441.358
-442.179
-444.536
-446.514
-447.203
-23.0186
-28.3368
-35.735
-46.2543
-61.3103
-81.8958
-109.153
-145.577
-193.056
-252.676
-326.218
-416.168
-523.814
-651.986
-805.039
-981.669
-1166.75
-1339.95
-1488.92
-1613.11
-1702.95
-1745.38
-1746.63
-1701.56
-1615.7
-1495.93
-1361.61
-1221.79
-1086.19
-964.492
-858.17
-771.362
-700.702
-643.584
-599.063
-565.475
-541.065
-523.326
-509.882
-498.629
-488.316
-478.453
-469.052
-460.493
-453.612
-449.415
-448.426
-450.249
-451.738
-453.041