/*--------------------------------*- C++ -*----------------------------------*\
| =========                 |                                                 |
| \\      /  F ield         | OpenFOAM: The Open Source CFD Toolbox           |
|  \\    /   O peration     | Version:  v1912                                 |
|   \\  /    A nd           | Website:  www.openfoam.com                      |
|    \\/     M anipulation  |                                                 |
\*---------------------------------------------------------------------------*/
FoamFile
{
    version     2.0;
    format      ascii;
    class       surfaceScalarField;
    location    "0.29";
    object      phi;
}
// * * * * * * * * * * * * * * * * * * * * * * * * * * * * * * * * * * * * * //

dimensions      [0 3 -1 0 0 0 0];
oriented        oriented;


internalField   nonuniform List<scalar> 
13060
(
0.00572966
0.988445
-0.994174
0.00763966
0.945833
-0.947743
0.00891899
0.900322
-0.901601
0.00985566
0.85688
-0.857817
0.0104729
0.816227
-0.816844
0.0106773
0.777855
-0.77806
0.0108403
0.741099
-0.741262
0.0111367
0.705667
-0.705964
0.011372
0.671948
-0.672184
0.0114911
0.639615
-0.639734
0.0116362
0.608588
-0.608733
0.0119
0.578813
-0.579077
0.0122061
0.550402
-0.550709
0.0125085
0.523176
-0.523478
0.0128048
0.497072
-0.497369
0.01309
0.472088
-0.472373
0.0133532
0.448087
-0.448351
0.0135389
0.425183
-0.425369
0.013736
0.403246
-0.403443
0.0144062
0.382109
-0.382779
0.014961
0.362263
-0.362818
0.0150923
0.343525
-0.343656
0.0147399
0.325597
-0.325244
0.0145333
0.3082
-0.307994
0.0145797
0.291753
-0.291799
0.0144832
0.27636
-0.276263
0.0142101
0.261719
-0.261446
0.0139234
0.247788
-0.247501
0.0136035
0.234665
-0.234345
0.0131833
0.22234
-0.221919
0.012675
0.210715
-0.210207
0.0121071
0.199741
-0.199173
0.0114878
0.189405
-0.188785
0.0108053
0.179718
-0.179036
0.0100506
0.170608
-0.169853
0.00923185
0.162057
-0.161238
0.00836214
0.154054
-0.153184
0.00744984
0.146605
-0.145693
0.00650508
0.139677
-0.138732
0.00552785
0.133193
-0.132215
0.00452948
0.127143
-0.126144
0.00351542
0.121499
-0.120485
0.00252899
0.116145
-0.115159
0.00158083
0.111195
-0.110246
0.000676234
0.106522
-0.105617
-0.000160403
0.102307
-0.10147
-0.00111428
0.0980845
-0.0971306
-0.0018886
0.0947051
-0.0939307
-0.00179135
0.0866951
-0.0867923
0.0595115
-0.0613028
0.00556975
0.982875
0.00645819
0.944945
0.00683783
0.899942
0.00675166
0.856967
0.00676262
0.816216
0.0070947
0.777523
0.00738605
0.740808
0.00748317
0.70557
0.0075975
0.671834
0.00786033
0.639352
0.00813612
0.608312
0.00824833
0.578701
0.00830454
0.550346
0.00835429
0.523126
0.00843698
0.49699
0.00855631
0.471968
0.00867615
0.447967
0.00880405
0.425055
0.00883006
0.40322
0.00842088
0.382518
0.00793503
0.362749
0.0080064
0.343453
0.0084573
0.325146
0.00864629
0.308011
0.00839655
0.292003
0.00817737
0.276579
0.00807815
0.261818
0.00787324
0.247992
0.00753899
0.234999
0.00716877
0.22271
0.00679291
0.211091
0.00634994
0.200184
0.00583023
0.189924
0.00528023
0.180268
0.00469373
0.171194
0.00405381
0.162697
0.00337508
0.154732
0.00267895
0.147301
0.00196565
0.14039
0.0012461
0.133912
0.00054077
0.127848
-0.000145216
0.122185
-0.000859267
0.116859
-0.00152589
0.111861
-0.00215444
0.10715
-0.0027021
0.102854
-0.00317651
0.0985589
-0.00315555
0.0946841
-0.00239287
0.0859324
0.0571186
0.00574641
0.977129
0.00642292
0.944268
0.00647064
0.899894
0.00589297
0.857544
0.00525116
0.816858
0.00438458
0.77839
0.0037182
0.741474
0.00331964
0.705969
0.00289153
0.672262
0.00237247
0.639871
0.00194739
0.608737
0.00174116
0.578907
0.00165589
0.550431
0.00160978
0.523172
0.00159118
0.497008
0.00158751
0.471972
0.00158421
0.447971
0.00156309
0.425077
0.00167761
0.403105
0.00233868
0.381857
0.00293988
0.362148
0.00273144
0.343662
0.00223473
0.325642
0.00210311
0.308143
0.00228653
0.291819
0.00222276
0.276643
0.00197348
0.262067
0.00178329
0.248183
0.00161156
0.235171
0.00135794
0.222963
0.00102349
0.211426
0.000666811
0.200541
0.00027909
0.190312
-0.000148833
0.180696
-0.000615799
0.171661
-0.00109866
0.163179
-0.00159727
0.155231
-0.00211062
0.147814
-0.00262013
0.1409
-0.00311489
0.134407
-0.00358718
0.12832
-0.00402075
0.122619
-0.00437399
0.117212
-0.00464677
0.112134
-0.00483475
0.107338
-0.0049107
0.10293
-0.00494004
0.0985883
-0.00438099
0.094125
-0.00300322
0.0845546
0.0541154
0.00394225
0.973186
0.00355723
0.944653
0.00256945
0.900882
0.00169468
0.858419
0.00093757
0.817615
0.000436709
0.778891
-0.000143785
0.742055
-0.000773919
0.706599
-0.00121812
0.672706
-0.00148322
0.640136
-0.00172572
0.60898
-0.00207546
0.579257
-0.00240531
0.550761
-0.00267152
0.523439
-0.00287327
0.49721
-0.00300613
0.472105
-0.00308157
0.448046
-0.00310315
0.425098
-0.00327608
0.403278
-0.00392965
0.382511
-0.00442491
0.362643
-0.00419874
0.343436
-0.00378206
0.325226
-0.00374719
0.308108
-0.00401106
0.292083
-0.00410245
0.276734
-0.00409191
0.262057
-0.00421211
0.248303
-0.00442973
0.235389
-0.0046401
0.223174
-0.00483946
0.211625
-0.0050845
0.200786
-0.0053754
0.190603
-0.00568174
0.181002
-0.0059862
0.171966
-0.00629877
0.163492
-0.00661022
0.155542
-0.00690137
0.148106
-0.00716833
0.141167
-0.00740287
0.134641
-0.00758758
0.128505
-0.00769692
0.122728
-0.00772839
0.117244
-0.00767124
0.112077
-0.0075087
0.107176
-0.0071906
0.102612
-0.00675771
0.0981554
-0.00574457
0.0931119
-0.00370752
0.0825176
0.0504078
0.00383293
0.969353
0.00310292
0.945383
0.00194092
0.902044
0.000677978
0.859682
-0.00103705
0.81933
-0.0027658
0.780619
-0.00415915
0.743448
-0.00530349
0.707743
-0.00638975
0.673793
-0.00747746
0.641224
-0.00839858
0.609901
-0.00902364
0.579882
-0.00948588
0.551223
-0.00982031
0.523773
-0.0101137
0.497503
-0.0103356
0.472327
-0.0104969
0.448208
-0.0105913
0.425193
-0.0104213
0.403108
-0.0098151
0.381905
-0.00931422
0.362142
-0.00959003
0.343712
-0.0101018
0.325737
-0.0102168
0.308223
-0.0100087
0.291875
-0.0100149
0.27674
-0.010195
0.262237
-0.0102879
0.248396
-0.0103294
0.23543
-0.0104311
0.223276
-0.0105911
0.211785
-0.0107479
0.200943
-0.0108937
0.190749
-0.0110422
0.181151
-0.0111896
0.172113
-0.0113207
0.163623
-0.0114255
0.155647
-0.0115027
0.148183
-0.0115326
0.141196
-0.0115006
0.134609
-0.0113943
0.128399
-0.0111962
0.12253
-0.010901
0.116949
-0.0104896
0.111665
-0.0099601
0.106646
-0.00926086
0.101913
-0.00849684
0.0973913
-0.00709144
0.0917065
-0.00438254
0.0798087
0.0460253
0.00201865
0.967335
7.62207e-05
0.947326
-0.00264634
0.904767
-0.00445157
0.861487
-0.00598414
0.820862
-0.00723781
0.781873
-0.00853048
0.744741
-0.00987062
0.709083
-0.0109049
0.674827
-0.0116483
0.641967
-0.012305
0.610558
-0.0130022
0.580579
-0.0136211
0.551842
-0.0141418
0.524294
-0.0145553
0.497917
-0.0148723
0.472644
-0.0150988
0.448434
-0.0152822
0.425376
-0.0157188
0.403545
-0.0165479
0.382734
-0.0170743
0.362669
-0.0167073
0.343345
-0.0161618
0.325192
-0.0160972
0.308159
-0.0163291
0.292107
-0.016343
0.276754
-0.0161966
0.262091
-0.0161611
0.24836
-0.0162162
0.235485
-0.0162412
0.223301
-0.0162253
0.211769
-0.0162244
0.200942
-0.0162381
0.190763
-0.0162339
0.181147
-0.016198
0.172077
-0.0161364
0.163562
-0.0160407
0.155551
-0.0158886
0.148031
-0.0156704
0.140978
-0.0153796
0.134319
-0.0150028
0.128022
-0.0145334
0.12206
-0.0139612
0.116376
-0.0132778
0.110982
-0.0124956
0.105864
-0.0116133
0.101031
-0.0104338
0.0962119
-0.00851267
0.0897853
-0.00507429
0.0763703
0.040951
0.00147687
0.965858
-0.000795868
0.949598
-0.0034151
0.907386
-0.00581168
0.863884
-0.00844197
0.823493
-0.0109718
0.784403
-0.013184
0.746953
-0.0150355
0.710935
-0.0167797
0.676571
-0.0184671
0.643654
-0.0198417
0.611933
-0.0208451
0.581583
-0.0216193
0.552617
-0.0222195
0.524894
-0.0226659
0.498363
-0.0230059
0.472984
-0.0232549
0.448683
-0.0233573
0.425478
-0.0230297
0.403217
-0.0222342
0.381938
-0.0217219
0.362156
-0.0220381
0.343661
-0.0225392
0.325693
-0.0225553
0.308175
-0.0222521
0.291804
-0.0221106
0.276613
-0.0221403
0.26212
-0.0220804
0.2483
-0.0219321
0.235337
-0.0217984
0.223167
-0.0216953
0.211666
-0.0215729
0.20082
-0.021414
0.190604
-0.021221
0.180954
-0.0210024
0.171859
-0.0207417
0.163301
-0.0204235
0.155233
-0.0200481
0.147655
-0.0195988
0.140529
-0.0190623
0.133782
-0.0184346
0.127394
-0.0176965
0.121322
-0.0168513
0.115531
-0.0158993
0.11003
-0.0148457
0.10481
-0.013761
0.0999459
-0.0121869
0.0946378
-0.00985879
0.0874573
-0.00569687
0.0722084
0.0352541
-9.83387e-05
0.965956
-0.00449122
0.953991
-0.00818966
0.911084
-0.0111907
0.866885
-0.0138045
0.826106
-0.0160036
0.786602
-0.0181319
0.749081
-0.0200626
0.712866
-0.0215711
0.67808
-0.0226933
0.644777
-0.0236926
0.612932
-0.0246937
0.582584
-0.0255647
0.553488
-0.0263049
0.525634
-0.0268761
0.498934
-0.0272915
0.473399
-0.0275885
0.44898
-0.0278408
0.425731
-0.0284212
0.403798
-0.0294188
0.382936
-0.0298877
0.362625
-0.0293994
0.343172
-0.0286851
0.324979
-0.0284292
0.307919
-0.0284491
0.291824
-0.0283092
0.276473
-0.0279806
0.261792
-0.0276976
0.248017
-0.0274953
0.235135
-0.0272686
0.22294
-0.0269818
0.211379
-0.0266721
0.20051
-0.0263451
0.190277
-0.0259805
0.180589
-0.0255606
0.171439
-0.0250893
0.16283
-0.0245655
0.154709
-0.0239717
0.147062
-0.0232978
0.139855
-0.0225378
0.133022
-0.0216827
0.126539
-0.0207429
0.120383
-0.019716
0.114504
-0.0185975
0.108911
-0.0173778
0.103591
-0.0160668
0.0986349
-0.0141733
0.0927443
-0.0112703
0.0845542
-0.0062789
0.067217
0.0289752
-0.000423933
0.96638
-0.00461111
0.958179
-0.0087811
0.915254
-0.0127827
0.870886
-0.0165512
0.829875
-0.0200445
0.790095
-0.023012
0.752049
-0.0255185
0.715372
-0.0279334
0.680495
-0.0301885
0.647032
-0.0319714
0.614715
-0.0333253
0.583938
-0.0343691
0.554531
-0.0351402
0.526405
-0.0357047
0.499499
-0.0361044
0.473799
-0.0363717
0.449247
-0.0364353
0.425794
-0.0359328
0.403295
-0.0348784
0.381881
-0.0341921
0.361939
-0.0344041
0.343384
-0.0347617
0.325336
-0.0346549
0.307812
-0.0342043
0.291373
-0.0337968
0.276065
-0.0335445
0.261539
-0.0332525
0.247725
-0.0328477
0.23473
-0.0324085
0.222501
-0.0319772
0.210948
-0.0315226
0.200055
-0.0310187
0.189773
-0.0304608
0.180031
-0.0298603
0.170838
-0.0292045
0.162174
-0.0284816
0.153986
-0.0276921
0.146272
-0.0268238
0.138987
-0.0258726
0.132071
-0.0248411
0.125507
-0.0237035
0.119245
-0.0224685
0.113269
-0.0211627
0.107606
-0.0198743
0.102302
-0.0182221
0.0969827
-0.0160235
0.0905456
-0.0125551
0.0810859
-0.00676445
0.0614263
0.0222108
-0.00200776
0.968388
-0.00846162
0.964632
-0.0138564
0.920649
-0.0183628
0.875393
-0.0220821
0.833594
-0.0251837
0.793197
-0.0280117
0.754877
-0.0306166
0.717977
-0.032586
0.682464
-0.0340811
0.648527
-0.0354488
0.616082
-0.0367137
0.585203
-0.0377927
0.55561
-0.0386909
0.527303
-0.0393891
0.500197
-0.0398721
0.474282
-0.0401718
0.449547
-0.0404088
0.426031
-0.0409806
0.403867
-0.0419058
0.382807
-0.0423142
0.362347
-0.0417058
0.342776
-0.0408064
0.324437
-0.0402165
0.307222
-0.0399143
0.291071
-0.0395537
0.275705
-0.0389995
0.260985
-0.0384124
0.247138
-0.0378891
0.234207
-0.0373589
0.221971
-0.0367666
0.210356
-0.036126
0.199415
-0.0354437
0.189091
-0.034716
0.179303
-0.0339333
0.170056
-0.0330948
0.161335
-0.0321995
0.153091
-0.0312375
0.14531
-0.0302048
0.137954
-0.02909
0.130956
-0.0278824
0.1243
-0.0266126
0.117975
-0.0252906
0.111947
-0.0238929
0.106208
-0.0224894
0.100899
-0.0204855
0.0949787
-0.0178942
0.0879543
-0.0136078
0.0767995
-0.00686978
0.0546883
0.015341
-0.00245201
0.97084
-0.00881451
0.970995
-0.0144915
0.926326
-0.0199435
0.880845
-0.0247577
0.838408
-0.0291417
0.797581
-0.0328853
0.75862
-0.0360869
0.721179
-0.0391465
0.685523
-0.0418988
0.651279
-0.0440432
0.618227
-0.0456935
0.586853
-0.0469452
0.556862
-0.0478379
0.528196
-0.0484556
0.500815
-0.04885
0.474676
-0.0490605
0.449758
-0.049015
0.425986
-0.0483764
0.403228
-0.0471486
0.381579
-0.0462202
0.361419
-0.0461126
0.342668
-0.0461872
0.324512
-0.0459185
0.306953
-0.0452929
0.290445
-0.0445694
0.274981
-0.0439508
0.260367
-0.0433621
0.24655
-0.0426849
0.233529
-0.0419382
0.221224
-0.0411753
0.209593
-0.0403921
0.198632
-0.0395637
0.188262
-0.0386829
0.178422
-0.0377561
0.169129
-0.0367753
0.160355
-0.0357385
0.152054
-0.0346461
0.144218
-0.0334768
0.136785
-0.0322379
0.129717
-0.0309411
0.123003
-0.0295497
0.116584
-0.0280756
0.110473
-0.0266798
0.104812
-0.0249794
0.0991986
-0.0227606
0.0927599
-0.0195114
0.0847051
-0.0140126
0.0713007
-0.00582791
0.0465036
0.0095131
-0.00532375
0.976164
-0.0129982
0.978669
-0.0194996
0.932828
-0.0253192
0.886665
-0.0301021
0.843191
-0.0341304
0.801609
-0.0377516
0.762241
-0.0409175
0.724345
-0.0432861
0.687892
-0.0451773
0.65317
-0.0469087
0.619958
-0.0484113
0.588356
-0.0496681
0.558119
-0.0507105
0.529238
-0.0514804
0.501585
-0.0519764
0.475172
-0.0522389
0.45002
-0.0523935
0.42614
-0.0527938
0.403629
-0.0535035
0.382288
-0.053757
0.361672
-0.053035
0.341946
-0.0519225
0.323399
-0.050959
0.30599
-0.050237
0.289723
-0.0495887
0.274333
-0.0488095
0.259587
-0.0479398
0.24568
-0.0470827
0.232672
-0.0462412
0.220383
-0.0453677
0.208719
-0.0444474
0.197711
-0.0434812
0.187296
-0.0424694
0.177411
-0.0414171
0.168077
-0.0403241
0.159261
-0.0391814
0.150912
-0.037976
0.143012
-0.0367209
0.13553
-0.0353978
0.128394
-0.0339831
0.121588
-0.0325192
0.11512
-0.0310623
0.109016
-0.0295893
0.103339
-0.0275268
0.0971361
-0.0249258
0.0901589
-0.0207838
0.0805631
-0.0137267
0.0642437
-0.00420041
0.0369773
0.00531269
-0.00527071
0.981434
-0.0133363
0.986735
-0.0201478
0.939639
-0.0265717
0.893088
-0.0323162
0.848936
-0.0376604
0.806953
-0.0422364
0.766817
-0.0461663
0.728275
-0.0498385
0.691564
-0.0530025
0.656334
-0.0554843
0.62244
-0.0574101
0.590281
-0.0588367
0.559545
-0.0597972
0.530199
-0.0604069
0.502194
-0.0607368
0.475502
-0.0608245
0.450108
-0.0606155
0.425931
-0.0598291
0.402842
-0.0584542
0.380914
-0.057236
0.360454
-0.0567044
0.341415
-0.056385
0.32308
-0.0558673
0.305472
-0.055087
0.288943
-0.0540929
0.273339
-0.0531107
0.258605
-0.0522057
0.244775
-0.0512886
0.231755
-0.0503001
0.219394
-0.0492761
0.207695
-0.0482347
0.19667
-0.0471575
0.186219
-0.046052
0.176305
-0.0449179
0.166943
-0.043739
0.158082
-0.0425178
0.149691
-0.041264
0.141758
-0.0399363
0.134202
-0.0385441
0.127002
-0.0371116
0.120156
-0.0356302
0.113638
-0.0342401
0.107626
-0.032436
0.101535
-0.0301145
0.0948147
-0.0268148
0.0868592
-0.0214958
0.0752441
-0.0132853
0.0560331
-0.00266355
0.0263555
0.00264914
-0.00690861
0.988343
-0.0165428
0.996369
-0.0245461
0.947642
-0.0315905
0.900133
-0.0374139
0.854759
-0.0422473
0.811787
-0.0465486
0.771119
-0.0502424
0.731969
-0.0530828
0.694405
-0.0554457
0.658697
-0.0575787
0.624573
-0.0593483
0.592051
-0.0608034
0.561001
-0.0619768
0.531372
-0.0628024
0.50302
-0.0632858
0.475986
-0.0634672
0.450289
-0.0634522
0.425916
-0.0635603
0.40295
-0.0639
0.381253
-0.0639099
0.360464
-0.0630597
0.340565
-0.0617565
0.321776
-0.0604811
0.304197
-0.0593123
0.287774
-0.0583047
0.272331
-0.0573022
0.257603
-0.056223
0.243696
-0.0550969
0.230629
-0.0539951
0.218292
-0.0529084
0.206608
-0.0518053
0.195567
-0.0506826
0.185096
-0.0495244
0.175147
-0.0483332
0.165751
-0.0471209
0.15687
-0.0458798
0.14845
-0.0445721
0.140451
-0.0432299
0.13286
-0.0418449
0.125617
-0.040403
0.118714
-0.0390247
0.11226
-0.0375096
0.106111
-0.0354356
0.099461
-0.0327896
0.0921687
-0.028714
0.0827835
-0.0219118
0.0684419
-0.0117122
0.0458336
-0.00151888
0.0161622
0.00113026
-0.00773106
0.996074
-0.016762
1.0054
-0.024607
0.955487
-0.0320045
0.90753
-0.0387404
0.861495
-0.0450098
0.818056
-0.0504113
0.77652
-0.0550794
0.736637
-0.0594101
0.698735
-0.0630265
0.662313
-0.0658914
0.627438
-0.0681695
0.594329
-0.0698084
0.562639
-0.0708506
0.532415
-0.0714542
0.503624
-0.0716923
0.476224
-0.0716126
0.45021
-0.0712136
0.425517
-0.0703011
0.402038
-0.068774
0.379726
-0.0672204
0.35891
-0.066211
0.339555
-0.0654251
0.32099
-0.0645607
0.303332
-0.0635771
0.286791
-0.0623902
0.271144
-0.061128
0.25634
-0.0599432
0.242511
-0.058827
0.229513
-0.0576854
0.217151
-0.0565144
0.205437
-0.0553275
0.19438
-0.0541144
0.183883
-0.052904
0.173937
-0.0517019
0.164549
-0.0504765
0.155645
-0.0492152
0.147188
-0.0479478
0.139183
-0.0466201
0.131532
-0.0452463
0.124243
-0.0439101
0.117378
-0.0426138
0.110964
-0.0408398
0.104337
-0.0386561
0.0972773
-0.0355315
0.0890441
-0.0303464
0.0775984
-0.0215632
0.0596587
-0.00881201
0.0330824
-0.00108216
0.00843232
4.8101e-05
-0.00803136
1.00411
-0.0192528
1.01662
-0.0283913
0.964626
-0.0363674
0.915506
-0.0430369
0.868165
-0.0486688
0.823688
-0.0536427
0.781494
-0.0580277
0.741022
-0.0615729
0.70228
-0.0646053
0.665346
-0.0672374
0.63007
-0.069352
0.596444
-0.0711051
0.564393
-0.0724713
0.533781
-0.0734028
0.504555
-0.0738924
0.476713
-0.0739819
0.450299
-0.0737654
0.425301
-0.0734712
0.401744
-0.073337
0.379592
-0.07301
0.358583
-0.0719674
0.338513
-0.0704398
0.319463
-0.0689118
0.301804
-0.0674082
0.285287
-0.0660162
0.269752
-0.0647473
0.255072
-0.0634913
0.241255
-0.0621987
0.22822
-0.0609344
0.215886
-0.0597243
0.204227
-0.0585465
0.193202
-0.0573907
0.182727
-0.0562361
0.172782
-0.0550571
0.16337
-0.0538583
0.154446
-0.0526575
0.145987
-0.0513979
0.137924
-0.0501254
0.130259
-0.0488734
0.122991
-0.0477292
0.116233
-0.0462605
0.109495
-0.0443713
0.102448
-0.0418444
0.0947504
-0.0376655
0.0848651
-0.0300693
0.0700023
-0.0182809
0.0478703
-0.00519055
0.0199921
-0.00061886
0.00386063
-0.000570758
-0.00849766
1.0126
-0.0180018
1.02613
-0.0267483
0.973372
-0.0352929
0.924051
-0.0430006
0.875872
-0.050315
0.831002
-0.0566845
0.787864
-0.0622575
0.746595
-0.067327
0.70735
-0.0716362
0.669655
-0.0751671
0.633601
-0.0780063
0.599283
-0.0799946
0.566381
-0.0812444
0.535031
-0.0819025
0.505213
-0.0820723
0.476883
-0.0818213
0.450048
-0.0811996
0.424679
-0.0801576
0.400702
-0.0784677
0.377902
-0.0765653
0.356681
-0.07503
0.336977
-0.073792
0.318225
-0.0724746
0.300487
-0.0711244
0.283937
-0.0697328
0.268361
-0.0683077
0.253647
-0.0669399
0.239887
-0.0656615
0.226942
-0.0644226
0.214648
-0.0631989
0.203004
-0.0619815
0.191985
-0.0607741
0.18152
-0.0595837
0.171592
-0.0584276
0.162214
-0.0572908
0.153309
-0.0561336
0.14483
-0.0549931
0.136783
-0.0538327
0.129099
-0.0527905
0.121949
-0.0515563
0.114999
-0.0498694
0.107808
-0.0477519
0.100331
-0.0443726
0.0913711
-0.0381181
0.0786107
-0.0277027
0.0595869
-0.0127548
0.0329224
-0.00278658
0.0100239
-0.000204323
0.00127837
-0.000775082
-0.00885855
1.02146
-0.0202147
1.03748
-0.0296806
0.982838
-0.0382349
0.932605
-0.0456998
0.883337
-0.0523267
0.837629
-0.0583423
0.793879
-0.0637873
0.75204
-0.0683679
0.71193
-0.0723557
0.673643
-0.0757441
0.636989
-0.0785033
0.602042
-0.0807882
0.568666
-0.0825367
0.536779
-0.0837131
0.50639
-0.0843118
0.477482
-0.0843765
0.450113
-0.0839789
0.424281
-0.0832636
0.399986
-0.0825565
0.377195
-0.0816985
0.355823
-0.0802999
0.335579
-0.0784757
0.316401
-0.0766132
0.298624
-0.0748602
0.282184
-0.073163
0.266663
-0.0715663
0.25205
-0.0700866
0.238407
-0.0686754
0.225531
-0.0673446
0.213317
-0.0661154
0.201774
-0.0649652
0.190835
-0.0638615
0.180416
-0.0628174
0.170548
-0.0617917
0.161188
-0.0607499
0.152268
-0.0597108
0.143791
-0.0586358
0.135708
-0.0576606
0.128124
-0.0566465
0.120935
-0.0551827
0.113535
-0.0534325
0.106058
-0.0507008
0.0975989
-0.0454262
0.0860964
-0.0360394
0.0692239
-0.0213694
0.0449169
-0.00689883
0.0184518
-0.00139615
0.00452116
-1.87963e-05
-9.89751e-05
-0.000793879
-0.00675853
1.02822
-0.0165555
1.04728
-0.026236
0.992519
-0.0356037
0.941973
-0.0442436
0.891977
-0.0526125
0.845998
-0.060167
0.801434
-0.0669263
0.758799
-0.0731292
0.718133
-0.0785831
0.679097
-0.0832061
0.641612
-0.0869484
0.605784
-0.0896938
0.571411
-0.0914753
0.53856
-0.0924203
0.507335
-0.092674
0.477736
-0.0923119
0.449751
-0.0914331
0.423403
-0.0901155
0.398669
-0.0882755
0.375355
-0.0859926
0.35354
-0.083858
0.333444
-0.0820772
0.31462
-0.0802086
0.296756
-0.0783351
0.28031
-0.0765544
0.264883
-0.0749229
0.250418
-0.0734213
0.236906
-0.0720292
0.224139
-0.0707382
0.212026
-0.0695118
0.200548
-0.0683443
0.189667
-0.0672578
0.17933
-0.0662138
0.169504
-0.0652099
0.160184
-0.0642277
0.151285
-0.0632584
0.142822
-0.0623812
0.134831
-0.0615619
0.127304
-0.0603267
0.1197
-0.0588436
0.112052
-0.0565555
0.10377
-0.0520169
0.0930602
-0.04374
0.0778196
-0.0300907
0.0555746
-0.0129651
0.0277912
-0.00339558
0.00888236
-0.000483859
0.00160944
9.11165e-05
-0.00067395
-0.000702762
-0.00761925
1.03584
-0.0174681
1.05713
-0.0270823
1.00213
-0.0363205
0.951211
-0.0447309
0.900388
-0.0524935
0.853761
-0.0597367
0.808677
-0.0666247
0.765687
-0.0726652
0.724174
-0.0780404
0.684472
-0.0827152
0.646287
-0.0866281
0.609697
-0.0898609
0.574644
-0.092396
0.541096
-0.0941406
0.509079
-0.0951116
0.478707
-0.0953402
0.449979
-0.0949024
0.422965
-0.0938936
0.39766
-0.0925292
0.373991
-0.0909823
0.351993
-0.0888613
0.331323
-0.0865169
0.312276
-0.0842284
0.294467
-0.0820994
0.278181
-0.0800338
0.262817
-0.0780819
0.248466
-0.0763187
0.235143
-0.0747114
0.222531
-0.0732901
0.210604
-0.0720985
0.199356
-0.0710601
0.188629
-0.0701098
0.178379
-0.069252
0.168646
-0.0684336
0.159366
-0.067666
0.150518
-0.0669089
0.142065
-0.0662201
0.134142
-0.0652174
0.126302
-0.0639225
0.118405
-0.0619739
0.110104
-0.0581355
0.0999316
-0.0509364
0.0858612
-0.0381471
0.0650302
-0.0198487
0.0372762
-0.00621865
0.0141612
-0.00130656
0.00397027
6.73175e-05
0.000235561
0.000167903
-0.000774536
-0.000534859
-0.00422926
1.04007
-0.0132224
1.06612
-0.0223259
1.01124
-0.0316825
0.960568
-0.0409947
0.9097
-0.0505087
0.863275
-0.0594227
0.817591
-0.0677749
0.774039
-0.0757482
0.732147
-0.0829364
0.69166
-0.0892582
0.652609
-0.0946216
0.615061
-0.0987813
0.578804
-0.101698
0.544012
-0.103444
0.510826
-0.104187
0.479449
-0.103989
0.449782
-0.10297
0.421945
-0.101273
0.395963
-0.0990466
0.371764
-0.0963187
0.349265
-0.0935205
0.328525
-0.0908324
0.309587
-0.0881881
0.291823
-0.0856047
0.275598
-0.0832666
0.260479
-0.0811869
0.246387
-0.0793543
0.23331
-0.0778435
0.22102
-0.0765521
0.209313
-0.075359
0.198163
-0.0743029
0.187573
-0.0733959
0.177472
-0.0725969
0.167847
-0.0718759
0.158645
-0.0711317
0.149773
-0.0705272
0.14146
-0.0697839
0.133399
-0.0686744
0.125192
-0.0670207
0.116751
-0.0638136
0.106897
-0.0575479
0.0936659
-0.0455195
0.0738328
-0.0267363
0.046247
-0.0100295
0.0205694
-0.00277535
0.006907
-0.0003783
0.00157322
0.000189295
-0.000332034
0.000145966
-0.000731206
-0.000388894
-0.00212605
1.04219
-0.0113614
1.07536
-0.0207516
1.02063
-0.0298901
0.969706
-0.038865
0.918675
-0.0477873
0.872197
-0.0565828
0.826386
-0.0651228
0.782579
-0.0730649
0.740089
-0.0804977
0.699093
-0.0871158
0.659227
-0.0928391
0.620784
-0.0977869
0.583751
-0.101781
0.548006
-0.104683
0.513728
-0.106499
0.481266
-0.107265
0.450548
-0.107035
0.421715
-0.105916
0.394844
-0.104041
0.369889
-0.101728
0.346952
-0.0988599
0.325657
-0.0956792
0.306407
-0.0925464
0.28869
-0.0895167
0.272568
-0.086712
0.257674
-0.0843334
0.244008
-0.082197
0.231174
-0.0802177
0.219041
-0.0786017
0.207697
-0.0774143
0.196976
-0.0765184
0.186677
-0.0758311
0.176785
-0.0752785
0.167294
-0.0747546
0.158121
-0.0744077
0.149427
-0.0740182
0.141071
-0.0731431
0.132524
-0.0717985
0.123848
-0.0691309
0.114084
-0.0636424
0.101408
-0.0523476
0.082371
-0.0334984
0.0549837
-0.0146365
0.0273851
-0.00481436
0.0107472
-0.00145614
0.00354877
-0.000400066
0.000517143
-0.000100103
-0.000631997
-7.62754e-06
-0.000823682
-0.000396521
0.00124693
1.04095
-0.00549371
1.0821
-0.013468
1.0286
-0.0226668
0.978905
-0.0324342
0.928442
-0.0428318
0.882595
-0.0532313
0.836786
-0.0634544
0.792802
-0.0734607
0.750095
-0.0829143
0.708547
-0.0918414
0.668154
-0.0996532
0.628596
-0.106107
0.590205
-0.111138
0.553037
-0.114647
0.517237
-0.116634
0.483252
-0.117227
0.45114
-0.116504
0.420993
-0.114668
0.393008
-0.111986
0.367207
-0.108591
0.343557
-0.104738
0.321804
-0.100906
0.302575
-0.0971393
0.284924
-0.0935157
0.268945
-0.0901251
0.254284
-0.0871141
0.240997
-0.0846935
0.228753
-0.0828835
0.217231
-0.0814873
0.206301
-0.0803537
0.195842
-0.0794709
0.185794
-0.0788584
0.176173
-0.0784027
0.166838
-0.0781258
0.157844
-0.0779198
0.149221
-0.0772692
0.14042
-0.0762425
0.131497
-0.074056
0.121661
-0.0692398
0.109267
-0.0587192
0.0908875
-0.0399076
0.0635594
-0.0195504
0.0346265
-0.00729154
0.0151262
-0.00264278
0.00609849
-0.00108262
0.00198861
-0.000551807
-1.36694e-05
-0.000329976
-0.000853828
-0.000146885
-0.00100677
-0.000543406
0.002975
1.03797
-0.00276808
1.08784
-0.0100073
1.03584
-0.0186347
0.987532
-0.0276252
0.937433
-0.0374506
0.89242
-0.0476606
0.846996
-0.057913
0.803055
-0.0680582
0.760241
-0.0779304
0.718419
-0.0871392
0.677363
-0.0956934
0.63715
-0.103328
0.59784
-0.109714
0.559422
-0.114772
0.522295
-0.1183
0.48678
-0.120322
0.453163
-0.120879
0.421549
-0.120063
0.392193
-0.118038
0.365182
-0.115059
0.340578
-0.111635
0.31838
-0.107385
0.298324
-0.102904
0.280443
-0.0986061
0.264646
-0.0947087
0.250386
-0.0911664
0.237455
-0.0881192
0.225706
-0.0855467
0.214659
-0.0834983
0.204252
-0.0822055
0.194549
-0.0814741
0.185062
-0.0810696
0.175768
-0.080951
0.16672
-0.081082
0.157975
-0.0809285
0.149067
-0.0803998
0.139891
-0.0787582
0.129856
-0.074562
0.117465
-0.0648514
0.0995568
-0.0461941
0.0722302
-0.0245297
0.041895
-0.00988186
0.0199786
-0.00336965
0.00861398
-0.000756583
0.00348542
0.00018711
0.00104492
0.000313281
-0.000139841
0.000141175
-0.000681722
-2.74538e-05
-0.000838143
-0.000570859
0.00853705
1.02944
0.00457289
1.0918
-0.0011771
1.04159
-0.00931184
0.995667
-0.0186751
0.946796
-0.0291637
0.902909
-0.0405045
0.858337
-0.0527075
0.815258
-0.0649562
0.772489
-0.0770409
0.730504
-0.0888043
0.689126
-0.0997583
0.648104
-0.109651
0.607733
-0.118027
0.567798
-0.124586
0.528855
-0.129171
0.491365
-0.131677
0.455669
-0.132202
0.422074
-0.130887
0.390878
-0.128012
0.362306
-0.123896
0.336462
-0.118736
0.313221
-0.113429
0.293017
-0.108177
0.275191
-0.103
0.25947
-0.0981671
0.245553
-0.0938377
0.233125
-0.0902905
0.222159
-0.0876429
0.212011
-0.0859017
0.202511
-0.0846618
0.193309
-0.0838394
0.18424
-0.083508
0.175437
-0.0837634
0.166975
-0.0839598
0.158172
-0.0836533
0.148761
-0.0824466
0.138685
-0.078902
0.126311
-0.0702703
0.108833
-0.0522366
0.0815231
-0.0293259
0.0493195
-0.0122289
0.024798
-0.00325075
0.0110005
0.000881642
0.00448159
0.00266384
0.00170322
0.00305728
0.00065148
0.0026
0.000317436
0.00160334
0.000314935
0.000524385
0.000240816
-4.6474e-05
0.00745457
1.02198
0.00647928
1.09278
0.0024854
1.04558
-0.00377487
1.00193
-0.0116028
0.954624
-0.0213404
0.912646
-0.0318676
0.868864
-0.043391
0.826781
-0.0557292
0.784828
-0.0682922
0.743067
-0.0805626
0.701397
-0.0924927
0.660034
-0.103529
0.618769
-0.113558
0.577827
-0.121961
0.537258
-0.128476
0.49788
-0.132972
0.460165
-0.135384
0.424486
-0.135708
0.391202
-0.134137
0.360735
-0.130973
0.333298
-0.126863
0.309111
-0.121598
0.287752
-0.115518
0.26911
-0.109352
0.253305
-0.10358
0.239781
-0.0983692
0.227915
-0.0938058
0.217595
-0.0900654
0.208271
-0.0871716
0.199617
-0.085238
0.191376
-0.084544
0.183546
-0.0847087
0.175601
-0.0850561
0.167323
-0.0849349
0.15805
-0.0843915
0.148217
-0.0820194
0.136312
-0.0748717
0.119164
-0.0581151
0.0920765
-0.034138
0.057546
-0.0143223
0.0295038
-0.00268371
0.0131594
0.00333081
0.00498601
0.00613517
0.00167723
0.00702947
0.000808925
0.00673569
0.000945256
0.00545004
0.00160309
0.00342892
0.00233605
0.00126108
0.00240866
0.0012146
0.0161572
1.00582
0.0157942
1.09314
0.0127352
1.04864
0.0064909
1.00817
-0.00154835
0.962663
-0.0110041
0.922102
-0.0222707
0.880131
-0.0351021
0.839613
-0.0485976
0.798323
-0.0629622
0.757431
-0.0778142
0.716249
-0.0923833
0.674603
-0.10614
0.632525
-0.118857
0.590545
-0.130037
0.548437
-0.138813
0.506655
-0.144913
0.466266
-0.148226
0.427799
-0.148719
0.391694
-0.146694
0.358711
-0.142501
0.329104
-0.136364
0.302974
-0.129233
0.280622
-0.122069
0.261945
-0.114677
0.245913
-0.107561
0.232665
-0.101115
0.221469
-0.0955415
0.212022
-0.0913567
0.204086
-0.0886324
0.196893
-0.0870878
0.189831
-0.0863643
0.182823
-0.0864998
0.175737
-0.0866165
0.167439
-0.0863706
0.157804
-0.0845108
0.146357
-0.0784688
0.130271
-0.0634849
0.10418
-0.0389638
0.0675554
-0.0164597
0.0350419
-0.00243417
0.0154782
0.00513266
0.00559256
0.00867197
0.0014467
0.00986219
0.000487009
0.00980682
0.000864291
0.00878639
0.00196569
0.00678963
0.00359985
0.00420064
0.00492504
0.00161021
0.00499909
0.00282481
0.0111025
0.994722
0.0150534
1.08919
0.0145693
1.04913
0.0116246
1.01112
0.00615972
0.968128
-0.00174259
0.930004
-0.0114078
0.889796
-0.0230319
0.851237
-0.0363177
0.811609
-0.0504563
0.77157
-0.0654589
0.731251
-0.0809393
0.690084
-0.0963147
0.647901
-0.110583
0.604813
-0.123519
0.561373
-0.134603
0.517739
-0.143203
0.474865
-0.148902
0.433499
-0.151947
0.394739
-0.152165
0.358929
-0.14988
0.32682
-0.145549
0.298643
-0.139331
0.274404
-0.131422
0.254036
-0.123054
0.237545
-0.114761
0.224372
-0.107159
0.213867
-0.100392
0.205255
-0.0947009
0.198394
-0.0900388
0.192231
-0.0867916
0.186584
-0.0853817
0.181413
-0.0849128
0.175268
-0.0844015
0.166928
-0.0831041
0.156507
-0.0789585
0.142212
-0.067195
0.118507
-0.0435041
0.0804888
-0.0188734
0.0429247
-0.00325081
0.0194194
0.00464081
0.00758658
0.00821514
0.00201824
0.00947526
0.000186577
0.00970299
0.00025928
0.00933821
0.00122907
0.00808243
0.00322147
0.0060394
0.00564289
0.00357255
0.00739189
0.00126899
0.00730265
0.0040938
0.020246
0.974476
0.0262786
1.08316
0.0243541
1.05105
0.0203215
1.01515
0.0155431
0.972906
0.00842876
0.937119
-0.0013841
0.899609
-0.0131962
0.863049
-0.0270738
0.825487
-0.0420053
0.786501
-0.0582293
0.747475
-0.0757105
0.707565
-0.0939373
0.666128
-0.111763
0.622639
-0.128145
0.577755
-0.142657
0.532251
-0.154037
0.486245
-0.161761
0.441223
-0.166016
0.398993
-0.166261
0.359174
-0.163064
0.323623
-0.157237
0.292816
-0.149457
0.266624
-0.140298
0.244878
-0.130081
0.227328
-0.120002
0.214293
-0.110426
0.204291
-0.101923
0.196752
-0.0950328
0.191505
-0.0903431
0.187541
-0.0874043
0.183645
-0.0857726
0.179781
-0.0844315
0.173927
-0.0825076
0.165004
-0.0787345
0.152734
-0.0703444
0.133822
-0.0480932
0.0962559
-0.0218799
0.0542754
-0.00492258
0.0259674
0.0027939
0.0117029
0.00559166
0.00478883