/*--------------------------------*- C++ -*----------------------------------*\
| =========                 |                                                 |
| \\      /  F ield         | OpenFOAM: The Open Source CFD Toolbox           |
|  \\    /   O peration     | Version:  v1912                                 |
|   \\  /    A nd           | Website:  www.openfoam.com                      |
|    \\/     M anipulation  |                                                 |
\*---------------------------------------------------------------------------*/
FoamFile
{
    version     2.0;
    format      ascii;
    class       volVectorField;
    location    "0.29";
    object      U;
}
// * * * * * * * * * * * * * * * * * * * * * * * * * * * * * * * * * * * * * //

dimensions      [0 1 -1 0 0 0 0];


internalField   nonuniform List<vector> 
6600
(
(39.8343 -0.0426302 0)
(40.1 -0.0580403 1.33324e-20)
(40.1643 0.0222792 9.35681e-19)
(40.1978 0.114707 0)
(40.2348 0.212509 1.1476e-18)
(40.2743 0.340256 3.87162e-20)
(40.314 0.501188 -4.29801e-20)
(40.3461 0.641383 -4.79251e-20)
(40.3648 0.796483 9.87573e-19)
(40.3644 0.963663 -1.26603e-19)
(40.334 1.15116 0)
(40.3005 1.33541 -1.27347e-18)
(40.259 1.52719 0)
(40.1949 1.72572 -1.42558e-18)
(40.1221 1.93484 -2.01527e-18)
(40.0386 2.15683 -1.09519e-18)
(39.9328 2.38817 0)
(39.8107 2.63338 0)
(39.6876 2.89336 1.89773e-18)
(39.5831 3.18078 -1.76741e-18)
(39.4595 3.39215 -2.66434e-19)
(39.3285 3.65518 -1.00825e-18)
(39.1089 4.00395 -1.90079e-18)
(38.8288 4.41786 4.29694e-19)
(38.6066 4.76917 1.58685e-18)
(38.41 5.13497 0)
(38.1671 5.57041 3.9821e-18)
(37.9033 6.03516 0)
(37.6265 6.51518 -2.03334e-18)
(37.3638 7.03196 -1.33673e-18)
(37.1012 7.60267 -3.46016e-19)
(36.8134 8.22145 -1.68953e-18)
(36.5165 8.87201 -7.11887e-19)
(36.2318 9.57868 1.45339e-18)
(35.945 10.3449 3.64471e-19)
(35.6472 11.1778 1.74448e-18)
(35.3595 12.0733 3.44962e-18)
(35.0904 13.0471 3.40135e-18)
(34.8517 14.0992 -2.54412e-18)
(34.6223 15.2352 2.73142e-18)
(34.4056 16.4548 1.47758e-18)
(34.2129 17.767 0)
(34.0256 19.1541 -3.82555e-19)
(33.8838 20.6515 9.76695e-19)
(33.8151 22.2394 0)
(33.8187 23.9932 -5.95318e-19)
(33.8047 25.7246 -1.49957e-18)
(34.0897 27.8417 0)
(32.5381 28.7872 0)
(23.6007 22.4854 -1.37876e-18)
(39.7428 -0.0420253 7.83886e-19)
(40.171 -0.0582141 -8.07187e-19)
(40.2192 0.0679779 0)
(40.2583 0.19123 -1.51536e-20)
(40.2917 0.320723 1.04838e-18)
(40.323 0.46395 3.66206e-20)
(40.3639 0.59169 -1.47711e-22)
(40.3905 0.746714 -4.50646e-20)
(40.4099 0.907827 0)
(40.414 1.07938 -1.74165e-18)
(40.4309 1.24545 -6.30294e-20)
(40.43 1.43445 1.09626e-18)
(40.422 1.63852 1.1614e-18)
(40.4016 1.85841 8.44667e-19)
(40.3506 2.0857 -3.1934e-21)
(40.2786 2.32337 1.20155e-19)
(40.1859 2.5705 -1.06467e-18)
(40.0792 2.83318 0)
(39.9421 3.09899 0)
(39.7532 3.37803 1.81547e-18)
(39.5958 3.80119 2.5314e-19)
(39.3996 4.13625 -1.36108e-18)
(39.2061 4.43741 -1.2437e-18)
(39.0344 4.73661 -1.43059e-18)
(38.8575 5.1538 -1.19388e-18)
(38.6423 5.59264 -4.97676e-19)
(38.3988 6.00972 -6.54774e-19)
(38.1586 6.46546 -6.53643e-19)
(37.9443 6.98162 2.01183e-18)
(37.7141 7.53048 3.07637e-19)
(37.4632 8.10205 -2.5862e-18)
(37.2264 8.72244 2.37728e-18)
(36.9941 9.39932 1.66603e-18)
(36.7563 10.113 -2.14917e-18)
(36.5134 10.8805 3.8999e-19)
(36.2881 11.7071 -1.78416e-18)
(36.074 12.6032 1.34702e-18)
(35.8868 13.5637 -1.21949e-18)
(35.7287 14.5962 -7.3625e-19)
(35.5918 15.7042 -8.50947e-19)
(35.4935 16.8945 0)
(35.4333 18.1696 0)
(35.422 19.5167 3.56559e-20)
(35.4565 20.9575 -1.45927e-19)
(35.5207 22.4581 -1.13442e-18)
(35.6864 24.1208 6.14679e-19)
(35.8776 25.7912 3.18521e-18)
(36.2961 27.6743 0)
(34.7505 28.2341 -3.97475e-18)
(24.5828 21.4686 1.65584e-18)
(39.6515 -0.0366226 -5.35761e-20)
(40.2863 -0.0865376 8.23895e-19)
(40.3424 0.0613268 8.17176e-19)
(40.3861 0.184019 -3.62559e-22)
(40.4307 0.328398 -1.29036e-19)
(40.4774 0.499301 3.44631e-20)
(40.5218 0.691959 0)
(40.551 0.861095 0)
(40.5758 1.05206 0)
(40.5804 1.25218 9.19355e-19)
(40.5475 1.47627 -5.78869e-20)
(40.5192 1.69351 -1.10357e-18)
(40.4779 1.91731 -6.13685e-19)
(40.4166 2.14646 1.27084e-18)
(40.3509 2.38862 7.31337e-19)
(40.2761 2.64345 -1.12626e-19)
(40.1823 2.91017 2.15827e-18)
(40.0758 3.19169 -1.09921e-18)
(39.9718 3.49192 -1.2625e-18)
(39.8839 3.78583 0)
(39.7683 4.00644 -8.32571e-19)
(39.6715 4.33826 1.09181e-18)
(39.4773 4.74275 1.25862e-18)
(39.2252 5.17235 1.44863e-18)
(39.036 5.53778 1.27226e-18)
(38.8752 5.9381 -1.47079e-19)
(38.6776 6.40818 -2.47738e-19)
(38.4719 6.90412 -7.37178e-19)
(38.2556 7.4092 -3.17381e-19)
(38.0579 7.9522 1.22673e-18)
(37.8705 8.54684 3.9712e-19)
(37.6718 9.18357 0)
(37.476 9.8592 -1.89081e-18)
(37.2964 10.5846 4.94678e-19)
(37.1309 11.3564 1.06551e-18)
(36.9725 12.1821 1.40645e-18)
(36.836 13.0602 -8.82672e-19)
(36.7323 14.0062 -5.49643e-19)
(36.6774 15.0195 4.41379e-19)
(36.6551 16.1009 0)
(36.6695 17.2455 2.56718e-19)
(36.7304 18.4672 0)
(36.8235 19.737 0)
(37.0017 21.0884 1.37928e-18)
(37.2907 22.5112 8.19866e-19)
(37.665 24.0622 -2.08449e-18)
(38.0763 25.6471 -2.06211e-18)
(38.5506 27.2957 0)
(36.7903 27.41 -2.63707e-18)
(25.2042 20.1074 2.77412e-18)
(39.5994 0.00658118 -7.35599e-19)
(40.4177 -0.0291126 5.57181e-21)
(40.4275 0.176583 -8.40497e-19)
(40.4814 0.308614 -7.80384e-19)
(40.512 0.467013 -9.44622e-19)
(40.5496 0.633553 -4.5344e-19)
(40.5953 0.793225 -3.43671e-20)
(40.6232 0.984185 0)
(40.6417 1.17318 6.26283e-19)
(40.648 1.37429 7.45549e-19)
(40.6692 1.56866 -5.21111e-20)
(40.6691 1.78959 -5.95952e-20)
(40.6639 2.02407 -5.0066e-19)
(40.6435 2.27391 -1.54299e-19)
(40.5898 2.52756 -4.46691e-21)
(40.5208 2.79232 -1.00384e-19)
(40.4345 3.06812 -1.12779e-20)
(40.3378 3.35794 1.23974e-18)
(40.2108 3.65491 1.6768e-18)
(40.0346 3.97534 0)
(39.883 4.42362 1.23867e-19)
(39.7178 4.77678 0)
(39.5761 5.09321 0)
(39.4374 5.43372 -2.9181e-19)
(39.2885 5.88169 9.11638e-19)
(39.1248 6.3448 1.00109e-18)
(38.9363 6.78519 -2.06609e-19)
(38.7443 7.26165 1.03764e-18)
(38.5949 7.7998 0)
(38.4446 8.36874 0)
(38.2765 8.95913 4.97238e-19)
(38.132 9.58803 0)
(38.0057 10.2721 4.99171e-19)
(37.8864 10.995 6.70949e-19)
(37.779 11.7639 -1.22391e-18)
(37.7004 12.5777 -1.10488e-18)
(37.6478 13.4481 5.17999e-19)
(37.6366 14.3701 -1.92098e-19)
(37.6711 15.3485 3.37231e-19)
(37.7468 16.3841 3.94339e-19)
(37.8804 17.4806 -1.19154e-18)
(38.0732 18.6366 0)
(38.3471 19.8471 0)
(38.6724 21.1107 -9.81643e-19)
(39.0507 22.4009 -2.11235e-18)
(39.5443 23.8098 -7.23467e-19)
(40.0998 25.3153 -3.7693e-18)
(40.5286 26.6121 4.16364e-18)
(38.4255 26.3033 5.95817e-18)
(25.386 18.4523 0)
(39.5531 0.0106479 -2.37888e-21)
(40.5725 -0.0406424 6.00944e-19)
(40.6086 0.185833 6.50651e-19)
(40.6665 0.296711 8.09689e-19)
(40.7144 0.488427 0)
(40.7603 0.687876 6.38483e-20)
(40.7996 0.908915 0)
(40.8232 1.10979 -3.30744e-20)
(40.8459 1.33137 -1.13206e-18)
(40.8435 1.56394 -7.43476e-19)
(40.8036 1.81942 4.56966e-20)
(40.7714 2.06499 5.21256e-20)
(40.7228 2.31571 -5.79845e-20)
(40.6635 2.5728 -5.70438e-19)
(40.6052 2.84302 -1.27596e-18)
(40.5323 3.12316 8.49773e-20)
(40.4439 3.41308 -1.55856e-18)
(40.3481 3.718 1.12949e-19)
(40.2592 4.04304 -5.51979e-19)
(40.1915 4.3357 -2.89865e-19)
(40.1024 4.58118 8.86497e-19)
(40.0212 4.93826 0)
(39.8636 5.37863 0)
(39.6529 5.82158 -4.06749e-19)
(39.503 6.21025 -5.938e-19)
(39.3834 6.63091 6.32176e-19)
(39.2398 7.12083 -1.60568e-19)
(39.1069 7.63721 0)
(38.9655 8.15733 1.79255e-19)
(38.8424 8.71216 -1.9967e-19)
(38.7439 9.31505 -5.05382e-19)
(38.6493 9.95688 -4.25134e-19)
(38.567 10.6291 1.98127e-19)
(38.5077 11.3424 -1.1906e-19)
(38.4766 12.0964 1.32485e-19)
(38.4718 12.8979 0)
(38.5014 13.738 -6.77192e-20)
(38.5761 14.6275 8.55125e-19)
(38.7125 15.5679 -4.13868e-19)
(38.8992 16.5554 -5.5822e-19)
(39.1413 17.5823 9.51537e-19)
(39.4449 18.6583 0)
(39.7872 19.7511 0)
(40.2332 20.8944 -2.05105e-18)
(40.8089 22.0764 4.44703e-18)
(41.4659 23.3484 1.13156e-18)
(42.138 24.7108 2.35026e-18)
(42.4404 25.747 -5.18009e-18)
(39.7345 24.9426 4.43374e-19)
(25.0748 16.514 -8.27535e-18)
(39.5326 0.0481451 5.23183e-19)
(40.7321 0.0171756 -9.44014e-20)
(40.739 0.326897 -6.63599e-19)
(40.7977 0.450143 2.90235e-19)
(40.8217 0.654617 0)
(40.8585 0.843524 4.20025e-19)
(40.8999 1.02941 -1.28698e-20)
(40.9229 1.24998 -3.99412e-19)
(40.9364 1.47008 5.41777e-19)
(40.9413 1.69574 0)
(40.9597 1.91475 3.86195e-20)
(40.956 2.1612 2.62323e-19)
(40.9519 2.41906 -3.92399e-19)
(40.9264 2.68611 5.46212e-20)
(40.8752 2.96525 6.15678e-19)
(40.8105 3.25231 -7.01109e-20)
(40.7306 3.54795 5.1842e-19)
(40.6445 3.85643 -8.99889e-20)
(40.5361 4.18111 1.02783e-19)
(40.3865 4.55885 2.73818e-19)
(40.2421 5.01269 3.6498e-19)
(40.1097 5.38445 3.78648e-22)
(40.0111 5.69333 1.58065e-19)
(39.9113 6.06029 5.9766e-19)
(39.8029 6.52145 0)
(39.7 7.001 -4.93924e-19)
(39.5783 7.45478 1.00212e-19)
(39.4436 7.93624 -1.13803e-20)
(39.3665 8.47633 -8.75953e-20)
(39.3073 9.04676 1.06833e-19)
(39.2329 9.63663 -3.34731e-20)
(39.1884 10.2566 2.51185e-19)
(39.1776 10.9208 0)
(39.1864 11.6198 0)
(39.2159 12.3541 0)
(39.2857 13.1215 0)
(39.395 13.9316 9.17922e-19)
(39.5587 14.7789 -1.71811e-18)
(39.7803 15.662 0)
(40.0543 16.5801 5.32106e-20)
(40.3916 17.5333 -2.64797e-19)
(40.794 18.5142 -3.08575e-18)
(41.2919 19.5283 1.6867e-18)
(41.8362 20.559 0)
(42.434 21.5823 1.7197e-18)
(43.1288 22.6863 -6.35789e-18)
(43.8289 23.9384 4.46947e-18)
(43.9005 24.5639 3.44268e-18)
(40.431 23.288 1.25719e-17)
(24.1452 14.312 -9.44292e-18)
(39.5472 0.0648016 -5.16245e-19)
(40.9348 0.0167605 -9.17707e-19)
(40.9711 0.342515 7.63742e-21)
(41.0376 0.441674 -2.91644e-19)
(41.0871 0.690346 2.32489e-19)
(41.1289 0.916559 -9.2207e-21)
(41.1605 1.16375 2.86422e-19)
(41.181 1.40049 4.01011e-19)
(41.1975 1.65156 3.38883e-19)
(41.1884 1.91941 -1.34502e-20)
(41.1429 2.20537 -1.98747e-19)
(41.1087 2.4787 -8.63368e-20)
(41.0565 2.75837 3.45095e-19)
(41.0019 3.04089 0)
(40.9489 3.33334 0)
(40.8847 3.63391 2.63847e-20)
(40.8069 3.94367 4.35105e-19)
(40.7257 4.26299 0)
(40.6522 4.59987 3.59907e-20)
(40.6021 4.87619 -4.31821e-19)
(40.5523 5.13418 -3.90215e-19)
(40.4882 5.50105 8.08191e-20)
(40.3717 5.96984 0)
(40.2136 6.41531 -2.76758e-19)
(40.1063 6.81958 -4.71133e-20)
(40.0308 7.24192 5.25573e-20)
(39.9433 7.7298 0)
(39.8903 8.24851 0)
(39.834 8.76836 -1.91736e-19)
(39.7901 9.31194 1.40741e-19)
(39.7848 9.89457 -3.65941e-20)
(39.8004 10.513 7.86751e-20)
(39.8356 11.1543 2.14415e-19)
(39.8945 11.8233 -5.66371e-19)
(39.9912 12.5226 1.15551e-18)
(40.1298 13.258 4.91038e-19)
(40.313 14.0185 -6.55141e-19)
(40.5491 14.8091 9.37403e-19)
(40.8498 15.6302 -1.76839e-18)
(41.2055 16.4755 6.45929e-20)
(41.625 17.3367 -3.35017e-19)
(42.1081 18.2221 1.60361e-18)
(42.6163 19.0911 2.52195e-18)
(43.2319 19.9829 -2.80156e-18)
(43.976 20.8903 1.76841e-18)
(44.7908 21.889 0)
(45.4446 22.8652 2.82952e-18)
(45.2023 23.2588 4.38576e-18)
(40.6431 21.4206 -8.85759e-18)
(22.5277 11.8921 -2.76136e-18)
(39.6026 0.086188 3.28647e-19)
(41.1325 0.0661627 4.06495e-19)
(41.158 0.495723 3.06806e-21)
(41.2038 0.599421 -1.56027e-19)
(41.2241 0.868976 -4.05347e-19)
(41.2592 1.08645 1.76017e-19)
(41.3009 1.30698 -4.61706e-19)
(41.3168 1.55944 9.36084e-20)
(41.3241 1.80562 -3.28073e-19)
(41.3327 2.05199 -1.15872e-19)
(41.3495 2.29398 3.34448e-19)
(41.3497 2.56262 -2.43461e-19)
(41.3525 2.84041 -1.32473e-19)
(41.3333 3.13016 1.98892e-22)
(41.2881 3.42769 -6.04463e-20)
(41.2333 3.73206 7.83192e-20)
(41.1659 4.04482 -1.86717e-19)
(41.094 4.36429 0)
(41.0047 4.70171 0)
(40.8852 5.12099 0)
(40.7626 5.59367 -1.74288e-20)
(40.6705 5.97242 -1.09875e-19)
(40.6054 6.27347 2.85751e-20)
(40.5413 6.64078 -1.31861e-20)
(40.4829 7.08828 0)
(40.4414 7.56507 0)
(40.3957 8.01741 -1.28657e-19)
(40.3249 8.48471 6.32085e-20)
(40.3183 9.00063 -1.02436e-19)
(40.3502 9.5477 1.22184e-19)
(40.3718 10.111 4.93117e-20)
(40.4242 10.6932 4.718e-19)
(40.5201 11.3075 -2.10647e-19)
(40.6424 11.9464 8.70022e-19)
(40.7956 12.6082 -5.60204e-19)
(40.9948 13.2891 -2.59782e-19)
(41.2381 13.9963 1.75566e-19)
(41.5403 14.7252 7.85273e-19)
(41.904 15.4703 7.64189e-19)
(42.3227 16.2294 1.26604e-18)
(42.7957 16.9999 -3.19752e-19)
(43.3232 17.7675 2.37552e-18)
(43.9539 18.5532 -2.6423e-18)
(44.6205 19.3271 0)
(45.3294 20.0806 0)
(46.1291 20.9601 0)
(46.5735 21.6154 0)
(45.8562 21.7078 0)
(39.9851 19.2743 -5.19947e-18)
(20.119 9.33358 8.5104e-18)
(39.681 0.115637 -3.30715e-19)
(41.3816 0.0472876 0)
(41.4469 0.486864 0)
(41.5076 0.594192 1.58204e-19)
(41.5539 0.915975 1.6168e-19)
(41.5931 1.16639 -1.73595e-19)
(41.6246 1.44955 1.81841e-19)
(41.6419 1.71617 -9.39064e-20)
(41.6579 1.99761 2.9027e-20)
(41.6474 2.30452 1.1134e-19)
(41.6056 2.61784 -1.15668e-19)
(41.5756 2.9178 1.07862e-20)
(41.526 3.22244 1.36817e-19)
(41.4802 3.52879 0)
(41.4364 3.83819 7.54352e-20)
(41.3851 4.15425 -8.19861e-20)
(41.3242 4.48009 1.40023e-21)
(41.2603 4.80867 6.10645e-20)
(41.2065 5.14799 -8.82411e-20)
(41.1811 5.41887 0)
(41.1559 5.65668 0)
(41.1145 6.02821 -1.28227e-19)
(41.05 6.49699 1.59333e-19)
(40.949 6.93786 2.39533e-19)
(40.8888 7.34574 5.92205e-20)
(40.8638 7.75249 -2.81559e-19)
(40.8251 8.21026 4.15588e-19)
(40.8445 8.70553 -5.33184e-19)
(40.8783 9.20239 2.80552e-19)
(40.9132 9.7099 -2.58561e-19)
(40.9911 10.2432 1.57145e-19)
(41.104 10.8068 -4.7814e-19)
(41.2404 11.3852 4.17525e-19)
(41.4032 11.9808 -6.43764e-19)
(41.6051 12.5923 0)
(41.8531 13.225 -6.84005e-19)
(42.1494 13.869 -6.76341e-19)
(42.5012 14.5261 1.81416e-19)
(42.9104 15.1948 1.59583e-18)
(43.3642 15.8662 -1.56545e-18)
(43.8816 16.5355 -2.97732e-19)
(44.461 17.2128 -2.76873e-18)
(45.0435 17.8459 6.52259e-18)
(45.7277 18.4796 4.29081e-19)
(46.5368 19.1299 5.09027e-19)
(47.3783 19.8991 -2.58009e-18)
(47.6014 20.2247 0)
(46.2029 20.0176 4.72898e-18)
(38.6691 16.9783 -2.49215e-18)
(16.9267 6.7309 0)
(39.787 0.150024 4.84056e-22)
(41.6459 0.11074 -1.40791e-22)
(41.6833 0.64527 -1.49811e-20)
(41.7231 0.761684 0)
(41.7325 1.09929 -4.03059e-22)
(41.7669 1.34055 1.68954e-20)
(41.8057 1.5903 0)
(41.8185 1.87377 -3.59335e-20)
(41.8281 2.15188 -2.83791e-20)
(41.8471 2.41262 -8.17804e-22)
(41.8612 2.68146 -8.03893e-20)
(41.8715 2.96961 -6.96376e-20)
(41.8815 3.26467 -3.36961e-22)
(41.8687 3.57088 0)
(41.8333 3.88411 0)
(41.7901 4.20107 0)
(41.7384 4.52543 1.51248e-19)
(41.6833 4.85169 -6.23238e-20)
(41.6189 5.19098 2.42219e-19)
(41.5332 5.62143 -3.15078e-20)
(41.4398 6.09714 7.6605e-20)
(41.3926 6.47577 8.27773e-20)
(41.3519 6.77559 -5.24079e-19)
(41.3289 7.12288 -4.61621e-19)
(41.3219 7.5305 0)
(41.3342 7.98028 2.94227e-19)
(41.3653 8.41701 -8.25067e-19)
(41.3678 8.85192 5.0756e-19)
(41.4197 9.31997 -3.06535e-19)
(41.5285 9.81548 1.82975e-19)
(41.6365 10.3265 -2.66486e-19)
(41.7729 10.8461 1.01869e-18)
(41.9521 11.3834 -1.12686e-18)
(42.1564 11.932 1.6103e-18)
(42.4 12.4937 6.81178e-19)
(42.6904 13.0634 -1.61547e-18)
(43.0223 13.6423 2.04711e-18)
(43.4057 14.2278 -1.33418e-18)
(43.8443 14.8132 3.77017e-20)
(44.3386 15.3979 0)
(44.8717 15.975 2.26317e-18)
(45.438 16.5229 1.56302e-18)
(46.1123 17.0798 1.76294e-19)
(46.8192 17.6132 -4.47849e-18)
(47.5928 18.174 -1.84001e-19)
(48.1575 18.6326 -3.10196e-18)
(48.051 18.7671 0)
(45.6593 18.1182 4.99518e-18)
(36.1287 14.3655 -8.36183e-18)
(12.8446 4.09852 0)
(39.9299 0.167765 0)
(41.9683 0.105048 0)
(42.0394 0.637652 4.8542e-20)
(42.0977 0.754829 1.46109e-21)
(42.1374 1.1447 -5.9903e-20)
(42.1741 1.41181 -1.64802e-20)
(42.203 1.72751 0)
(42.2255 2.02743 3.60158e-20)
(42.2378 2.33675 -1.30629e-19)
(42.2251 2.68253 0)
(42.195 3.01303 1.75184e-19)
(42.1669 3.33768 -6.26037e-20)
(42.1224 3.66235 1.32064e-20)
(42.088 3.98315 -1.47082e-20)
(42.0548 4.30556 0)
(42.0152 4.62861 0)
(41.9711 4.95849 -3.14958e-20)
(41.9268 5.29022 -1.65837e-19)
(41.8906 5.62297 9.1649e-20)
(41.8806 5.88963 -2.9515e-20)
(41.8853 6.11328 6.98204e-20)
(41.87 6.45976 -4.11701e-20)
(41.8594 6.89891 3.48638e-19)
(41.8042 7.31804 1.49244e-19)
(41.7947 7.71806 -3.21259e-19)
(41.8224 8.09602 -4.99177e-19)
(41.826 8.49929 3.11463e-19)
(41.8982 8.94383 5.43579e-19)
(42.0145 9.3946 0)
(42.1193 9.84921 0)
(42.2595 10.313 0)
(42.4434 10.7979 -7.27627e-19)
(42.6523 11.2907 -5.37103e-19)
(42.8894 11.7929 -5.42898e-19)
(43.1611 12.2984 8.44571e-19)
(43.4747 12.8116 1.03718e-18)
(43.8313 13.3245 -4.62133e-19)
(44.2425 13.8373 1.47269e-18)
(44.7019 14.3485 -8.61555e-19)
(45.1836 14.8427 -1.1554e-18)
(45.7221 15.3225 -1.41334e-18)
(46.3241 15.8012 1.57591e-18)
(46.9111 16.2192 0)
(47.5938 16.6347 2.50398e-18)
(48.4268 17.1183 -1.39e-18)
(48.7299 17.2931 1.71331e-18)
(48.2526 17.2002 0)
(44.5399 16.003 -2.52777e-18)
(32.8365 11.5746 1.47446e-18)
(8.53753 1.73367 0)
(40.128 0.252925 -5.31498e-20)
(42.3236 0.202005 0)
(42.3459 0.787555 -1.13829e-19)
(42.3663 0.919326 9.68981e-20)
(42.3625 1.31341 5.9047e-20)
(42.395 1.57987 -3.33549e-21)
(42.4287 1.85987 3.71413e-21)
(42.4393 2.17402 0)
(42.4537 2.47257 1.25277e-19)
(42.4799 2.74607 -1.22136e-19)
(42.489 3.0419 -9.47785e-20)
(42.5068 3.34396 1.23644e-19)
(42.5232 3.65217 -1.05762e-19)
(42.5133 3.97009 -2.62501e-20)
(42.4844 4.2939 1.51856e-20)
(42.4487 4.61602 0)
(42.409 4.94153 -1.7388e-19)
(42.3688 5.26641 2.10381e-19)
(42.3327 5.60187 5.75332e-20)
(42.2799 6.01155 -3.81587e-21)
(42.2124 6.47321 4.87388e-20)
(42.1984 6.84081 0)
(42.1781 7.1249 8.06891e-20)
(42.1951 7.44482 3.38296e-19)
(42.2333 7.79186 4.04277e-19)
(42.2844 8.18687 5.01863e-19)
(42.3758 8.58759 0)
(42.4524 8.97802 -3.86528e-19)
(42.5511 9.38327 -8.71454e-19)
(42.7112 9.80408 4.88443e-19)
(42.8843 10.2429 -1.0759e-18)
(43.0818 10.6853 -5.38685e-19)
(43.3139 11.1324 9.7782e-19)
(43.5656 11.5817 -3.58451e-19)
(43.8583 12.0344 -8.51884e-19)
(44.1934 12.4872 -4.48733e-19)
(44.5685 12.9387 -6.29118e-19)
(44.9815 13.3853 0)
(45.4294 13.8145 -1.05165e-18)
(45.9363 14.2377 2.33413e-18)
(46.468 14.6387 1.43617e-18)
(47.0074 14.9903 -1.71494e-18)
(47.6532 15.3476 2.22566e-18)
(48.395 15.7309 -1.13166e-18)
(48.9103 15.9625 2.82586e-18)
(48.9299 15.9646 3.73156e-20)
(47.5905 15.5083 0)
(42.1858 13.6361 5.1981e-18)
(28.2321 8.45877 -4.42044e-18)
(5.38607 0.317675 -1.63009e-18)
(40.3862 0.243518 5.32539e-20)
(42.6988 0.186187 -1.11428e-19)
(42.767 0.786831 7.8531e-20)
(42.8216 0.903062 -9.50549e-20)
(42.8429 1.33849 -8.4531e-20)
(42.8788 1.6241 -5.14798e-21)
(42.9125 1.98159 2.93778e-21)
(42.9298 2.30527 0)
(42.9348 2.64472 -1.45787e-19)
(42.92 3.01923 2.0915e-19)
(42.8967 3.36237 0)
(42.8689 3.7067 -1.37378e-20)
(42.8226 4.04691 -6.90879e-21)
(42.7964 4.37468 1.53107e-19)
(42.7664 4.70024 -2.25703e-19)
(42.7314 5.02232 -1.81111e-21)
(42.6962 5.34592 3.06083e-20)
(42.6637 5.66684 0)
(42.6334 5.98134 -1.13382e-19)
(42.6318 6.24179 2.77097e-19)
(42.6626 6.44418 -3.22589e-20)
(42.6694 6.74783 0)
(42.692 7.1341 0)
(42.6735 7.50399 -1.64897e-19)
(42.7034 7.87766 7.66609e-20)
(42.7856 8.22323 -5.69482e-19)
(42.8289 8.56393 2.1843e-19)
(42.9314 8.93573 -1.27409e-19)
(43.1007 9.32145 4.23329e-19)
(43.2601 9.71385 1.89157e-19)
(43.4419 10.102 6.24513e-19)
(43.6675 10.4998 -6.63287e-19)
(43.9154 10.8998 4.29621e-19)
(44.1882 11.3008 -4.53052e-19)
(44.4956 11.7022 -5.41758e-19)
(44.8382 12.1021 -5.85751e-19)
(45.2083 12.4917 0)
(45.6259 12.8724 1.42436e-18)
(46.09 13.248 -5.31163e-19)
(46.5473 13.586 -1.27533e-18)
(47.0465 13.902 1.52484e-18)
(47.6082 14.2115 -4.89801e-20)
(48.1713 14.4795 -1.14637e-18)
(48.8448 14.7537 -1.71597e-20)
(49.0464 14.7987 -1.49645e-18)
(48.7316 14.617 -3.80224e-18)
(46.318 13.7456 2.15442e-18)
(38.7927 11.1078 0)
(22.7458 5.37996 -2.95234e-18)
(3.18084 -0.166167 5.66101e-18)
(40.628 0.264447 2.28201e-22)
(43.1045 0.253212 1.11947e-19)
(43.1237 0.901611 -4.21682e-20)
(43.1279 1.05059 -1.32724e-21)
(43.1152 1.49504 8.46903e-20)
(43.1452 1.77918 0)
(43.1712 2.0838 0)
(43.1854 2.42411 -4.88211e-21)
(43.1952 2.73986 2.59983e-19)
(43.2213 3.02927 -9.00389e-20)
(43.2258 3.34685 7.69786e-21)
(43.2399 3.66366 -1.75927e-20)
(43.2589 3.97951 7.40066e-20)
(43.2455 4.30698 -7.54075e-20)
(43.2155 4.63417 3.29888e-19)
(43.1796 4.95592 -7.49182e-20)
(43.1429 5.27517 8.87789e-20)
(43.1073 5.58824 2.48655e-20)
(43.0813 5.90415 -2.64292e-19)
(43.0519 6.2708 -1.79588e-19)
(42.9978 6.69529 3.06814e-21)
(43.0049 7.04012 -4.81064e-20)
(42.9956 7.29811 0)
(43.0385 7.58242 -2.27909e-19)
(43.1162 7.86447 3.45076e-21)
(43.1798 8.17931 5.70535e-20)
(43.301 8.52072 6.18739e-20)
(43.4383 8.86011 1.65629e-19)
(43.5807 9.19769 0)
(43.7654 9.53614 1.18133e-19)
(43.9741 9.893 6.71608e-19)
(44.2054 10.2534 6.22821e-19)
(44.4608 10.6134 -3.35677e-19)
(44.7365 10.9735 7.03552e-19)
(45.045 11.328 -5.77754e-19)
(45.3839 11.6757 -3.58152e-19)
(45.7626 12.0178 0)
(46.1706 12.3497 -9.53505e-19)
(46.5802 12.6483 -6.09755e-19)
(47.0492 12.9437 6.81123e-19)
(47.5317 13.2078 -8.14643e-19)
(48.0129 13.425 9.67718e-19)
(48.6818 13.6889 0)
(48.9968 13.7781 6.601e-19)
(48.9917 13.7198 0)
(47.8882 13.2965 9.70626e-19)
(43.7326 11.9521 -2.20102e-18)
(33.6155 8.70173 1.24726e-18)
(14.6803 2.52758 0)
(1.34595 -0.184337 3.7937e-19)
(40.9902 0.307062 3.85198e-23)
(43.5594 0.245268 4.40559e-23)
(43.6064 0.883075 4.3275e-20)
(43.6461 1.00713 2.23035e-22)
(43.6628 1.47691 1.98195e-21)
(43.6918 1.78694 2.91192e-22)
(43.7266 2.17286 -3.24027e-22)
(43.7361 2.52381 7.70667e-22)
(43.7412 2.89653 -1.01091e-19)
(43.7258 3.28809 -2.22194e-21)
(43.7017 3.64869 -1.19787e-21)
(43.6699 4.00832 2.73038e-21)
(43.6119 4.36425 9.04786e-20)
(43.5783 4.69565 -1.07854e-19)
(43.5389 5.01897 -1.33901e-19)
(43.495 5.334 7.48042e-20)
(43.4533 5.64299 -8.58544e-20)
(43.4164 5.94308 -3.87791e-21)
(43.3873 6.2305 -4.60008e-21)
(43.3728 6.48076 0)
(43.4164 6.65827 -6.53119e-21)
(43.4338 6.8971 -3.79227e-21)
(43.4634 7.21897 4.24037e-21)
(43.4673 7.52321 0)
(43.5116 7.8375 0)
(43.6345 8.14332 2.20025e-19)
(43.7165 8.42501 0)
(43.8374 8.71677 -1.6585e-19)
(44.0232 9.02866 0)
(44.215 9.35208 8.32944e-21)
(44.4229 9.66877 -3.09565e-19)
(44.6671 9.98716 2.21278e-20)
(44.9298 10.3005 -4.46581e-19)
(45.2058 10.6096 4.01702e-20)
(45.5187 10.9198 2.59856e-19)
(45.8645 11.23 4.03989e-19)
(46.2224 11.5231 -1.42119e-20)
(46.6042 11.7983 0)
(47.0377 12.0758 -9.93533e-21)
(47.4409 12.3041 1.17114e-20)
(47.873 12.5137 0)
(48.4007 12.737 -1.56957e-20)
(48.8212 12.8789 -7.09274e-20)
(48.9049 12.8821 -5.77788e-19)
(48.4677 12.6859 -1.27974e-20)
(46.1752 11.9787 0)
(39.9409 10.151 0)
(26.6353 6.19155 1.74394e-19)
(7.97689 0.863925 -1.72485e-19)
(0.334598 -0.0122314 3.86276e-19)
(41.308 0.243003 1.08997e-19)
(43.9699 0.292381 1.20618e-19)
(43.9905 0.973824 6.61846e-20)
(43.9861 1.12828 7.71403e-20)
(43.9733 1.6058 8.10522e-20)
(43.995 1.90069 -9.48645e-20)
(44.018 2.22809 0)
(44.0291 2.59138 0)
(44.0405 2.92522 7.29775e-20)
(44.0559 3.24539 2.22132e-21)
(44.0541 3.58581 -9.09537e-20)
(44.0615 3.9186 -6.36191e-21)
(44.0705 4.24411 -1.21619e-19)
(44.0447 4.58249 1.4147e-19)
(44.0028 4.91254 1.79579e-19)
(43.9532 5.23236 0)
(43.903 5.54199 0)
(43.8557 5.83823 3.87681e-21)
(43.8171 6.12189 4.5993e-21)
(43.7879 6.4288 -1.97676e-19)
(43.7281 6.79371 6.52987e-21)
(43.7287 7.11185 0)
(43.7162 7.32319 0)
(43.7719 7.55873 -4.91117e-20)
(43.8761 7.78661 -2.41655e-19)
(43.9421 8.01875 7.38264e-20)
(44.0637 8.27871 0)
(44.2327 8.55328 -2.0316e-19)
(44.4109 8.82134 0)
(44.6093 9.08596 -8.32695e-21)
(44.8323 9.36356 0)
(45.0749 9.64695 0)
(45.3296 9.93394 1.21967e-19)
(45.6126 10.2204 1.44565e-19)
(45.922 10.5023 0)
(46.2443 10.7704 0)
(46.5962 11.0311 1.42049e-20)
(46.9792 11.2834 0)
(47.3296 11.4895 9.92954e-21)
(47.7379 11.706 -3.99077e-19)
(48.1638 11.9053 4.50942e-19)
(48.6519 12.0958 3.71132e-20)
(48.8154 12.1361 2.465e-20)
(48.6625 12.0689 -6.94358e-19)
(47.3441 11.6983 -4.09999e-19)
(43.3369 10.5978 2.35548e-18)
(33.9065 7.9037 -1.06451e-18)
(17.5831 3.21062 -1.23616e-18)
(4.10798 0.196027 1.01582e-18)
(-0.282329 0.03012 0)
(41.6505 0.279762 -1.08565e-19)
(44.4555 0.256244 1.61046e-19)
(44.5012 0.881159 -6.48373e-20)
(44.5303 1.02564 1.01361e-19)
(44.557 1.52858 -8.57282e-20)
(44.5902 1.84994 9.75815e-20)
(44.6228 2.27209 7.6073e-21)
(44.6364 2.65344 -8.47075e-21)
(44.6426 3.05416 -6.29556e-20)
(44.6277 3.46541 -1.11076e-20)
(44.5993 3.85204 9.65908e-20)
(44.5505 4.24199 2.54348e-19)
(44.4798 4.61736 -1.64048e-19)
(44.4163 4.9608 -1.29455e-19)
(44.3503 5.28498 -5.90368e-19)
(44.2772 5.59365 2.78112e-20)
(44.2057 5.88632 -3.10511e-20)
(44.1414 6.16187 3.12992e-19)
(44.0878 6.41664 4.52524e-20)
(44.0431 6.6449 1.46801e-19)
(44.0718 6.80604 0)
(44.0941 6.95903 0)
(44.1035 7.21746 0)
(44.1114 7.4467 0)
(44.1528 7.67567 2.37381e-19)
(44.2839 7.9146 -6.13923e-19)
(44.3982 8.13883 0)
(44.5404 8.36228 6.39289e-19)
(44.7265 8.60261 0)
(44.9248 8.85136 0)
(45.1434 9.10254 -7.35135e-19)
(45.3939 9.35216 4.36973e-19)
(45.6636 9.59584 -1.00643e-18)
(45.9393 9.84042 2.90246e-19)
(46.2401 10.0772 0)
(46.5684 10.3203 0)
(46.9094 10.5533 5.00294e-19)
(47.2425 10.7596 -1.72494e-18)
(47.627 10.9814 0)
(47.9709 11.1563 -1.20114e-18)
(48.4605 11.3761 1.72506e-18)
(48.6557 11.4512 -2.01323e-18)
(48.6146 11.4447 1.21102e-18)
(47.8642 11.2596 -1.44988e-18)
(45.3088 10.5818 3.69295e-18)
(38.6779 8.77463 -3.26147e-18)
(26.2908 5.45139 2.1347e-18)
(9.12855 1.03753 -4.76098e-18)
(1.54685 0.0685849 5.66352e-18)
(-0.595699 0.0140828 -3.62793e-18)
(42.0465 0.216399 -2.93452e-19)
(44.8889 0.297365 3.856e-20)
(44.9011 0.959824 0)
(44.8944 1.09468 -1.7723e-19)
(44.883 1.59416 -4.66265e-19)
(44.913 1.8894 1.49852e-20)
(44.9375 2.25684 0)
(44.9547 2.64178 0)
(44.9682 3.0107 -2.26463e-20)
(44.9779 3.36731 2.52196e-20)
(44.9687 3.74335 -4.94961e-19)
(44.9661 4.0994 3.13427e-19)
(44.9464 4.45528 2.92717e-19)
(44.9005 4.81189 -3.74332e-19)
(44.8306 5.15599 3.91929e-19)
(44.7483 5.48186 6.1243e-20)
(44.6632 5.78766 -6.4943e-19)
(44.5811 6.07092 -9.89744e-19)
(44.5071 6.32869 0)
(44.4382 6.56766 4.6748e-19)
(44.3603 6.84575 5.51017e-19)
(44.3001 7.13114 0)
(44.2805 7.27608 -7.73127e-19)
(44.3311 7.44168 0)
(44.4353 7.61462 0)
(44.5052 7.78029 6.12029e-19)
(44.6214 7.95125 3.84955e-19)
(44.7949 8.14084 9.23768e-19)
(44.9906 8.33395 0)
(45.2051 8.53255 0)
(45.443 8.74027 3.4372e-19)
(45.6906 8.96275 4.34413e-19)
(45.9394 9.19046 1.6228e-18)
(46.2146 9.41808 3.26933e-20)
(46.5205 9.65374 3.70527e-20)
(46.832 9.87429 -1.72331e-18)
(47.1526 10.0836 -4.71306e-20)
(47.5017 10.2969 2.31366e-18)
(47.8001 10.455 1.39751e-18)
(48.2728 10.6877 7.63681e-19)
(48.507 10.7965 1.7366e-18)
(48.5383 10.8167 7.4066e-20)
(48.2127 10.7689 -2.44913e-18)
(46.5563 10.3728 -1.44102e-18)
(41.6971 9.12623 -4.11848e-18)
(31.9508 6.64096 4.65343e-18)
(15.5291 2.40287 -2.08489e-18)
(4.37818 0.269916 0)
(0.233779 0.051911 0)
(-0.644005 0.0385599 7.1831e-19)
(42.2767 0.140851 9.43972e-19)
(45.3182 0.202836 3.95664e-19)
(45.3901 0.785887 -3.97511e-19)
(45.4296 0.932554 1.33711e-20)
(45.4749 1.45318 9.5533e-19)
(45.5309 1.77739 -1.67905e-20)
(45.5845 2.23264 0)
(45.6139 2.6504 -7.35873e-19)
(45.6298 3.08347 -2.52479e-20)
(45.6233 3.53175 -7.17512e-22)
(45.5894 3.9653 1.07167e-18)
(45.5257 4.40426 -5.28426e-19)
(45.4341 4.81623 1.23045e-21)
(45.3236 5.19607 3.25335e-19)
(45.209 5.54029 0)
(45.0826 5.85718 0)
(44.9534 6.14422 5.02428e-19)
(44.8303 6.39932 7.61414e-19)
(44.7209 6.6228 0)
(44.6223 6.81185 -4.64574e-19)
(44.5778 6.95927 -5.4877e-19)
(44.6026 7.03896 -1.71872e-19)
(44.5731 7.20659 1.54216e-19)
(44.5537 7.36436 7.16595e-19)
(44.5865 7.4988 2.71526e-19)
(44.7027 7.62959 3.43777e-19)
(44.8234 7.7807 -1.15568e-18)
(44.988 7.94324 -9.17979e-19)
(45.1812 8.10903 1.14222e-18)
(45.3827 8.29007 -1.3558e-18)
(45.6056 8.48099 0)
(45.8604 8.66531 0)
(46.1382 8.8588 5.46804e-20)
(46.4334 9.06123 -1.2605e-18)
(46.7366 9.25155 1.54429e-18)
(47.0462 9.44664 2.71567e-18)
(47.3618 9.64029 -1.01541e-18)
(47.6648 9.80684 -2.45564e-18)
(48.0824 10.0369 -2.7442e-18)
(48.3794 10.1913 -1.53883e-18)
(48.4464 10.2306 -6.27201e-20)
(48.3352 10.2479 2.14212e-18)
(47.1883 10.0248 0)
(43.5008 9.14176 1.42598e-18)
(35.8444 7.26749 1.62816e-18)
(21.9329 3.78963 1.84266e-18)
(7.73041 0.641354 6.19746e-18)
(1.71466 0.0907435 -2.30717e-18)
(-0.384792 0.0425581 0)
(-0.588082 0.0751331 0)
(42.5971 0.14914 5.53568e-20)
(45.7114 0.227909 -7.14031e-19)
(45.7514 0.785317 4.09974e-19)
(45.7654 0.921807 -9.74494e-19)
(45.7902 1.42628 -5.35088e-19)
(45.8444 1.72267 -3.62577e-22)
(45.8937 2.12193 2.09669e-20)
(45.9379 2.53811 6.85535e-19)
(45.9675 2.95314 5.42235e-20)
(45.986 3.36111 6.31909e-20)
(45.9768 3.79004 -5.42395e-19)
(45.9581 4.20029 -8.02184e-20)
(45.9127 4.60839 -7.70232e-19)
(45.8333 5.00807 -8.77025e-19)
(45.7184 5.39159 1.22711e-19)
(45.5836 5.7455 -1.36796e-19)
(45.4363 6.06807 0)
(45.2864 6.35331 -7.56783e-19)
(45.1422 6.59968 0)
(45.0045 6.80411 0)
(44.8721 6.98234 0)
(44.7131 7.18419 -3.57053e-19)
(44.6529 7.25739 1.199e-18)
(44.6675 7.3554 -9.54563e-19)
(44.7429 7.43011 0)
(44.8114 7.53149 -3.55311e-19)
(44.9331 7.6169 -1.26097e-18)
(45.1132 7.70672 -1.97428e-18)
(45.3155 7.81818 -1.73163e-18)
(45.5461 7.9318 1.32653e-18)
(45.8102 8.07191 -1.62825e-18)
(46.0776 8.24485 9.35562e-19)
(46.3449 8.42428 2.30231e-18)
(46.6255 8.61481 0)
(46.924 8.81631 1.6386e-18)
(47.2192 9.00883 -3.6506e-18)
(47.542 9.20061 -7.58475e-20)
(47.9023 9.41333 2.39463e-18)
(48.2462 9.59588 1.33057e-18)
(48.3525 9.67007 0)
(48.3348 9.71697 1.928e-18)
(47.5192 9.59508 -2.22356e-18)
(44.7586 8.97214 5.0081e-18)
(38.7776 7.57461 0)
(26.9486 4.73434 -6.51164e-18)
(11.2919 1.15395 1.80919e-18)
(3.53012 0.0820317 -2.03669e-18)
(0.412848 -0.0324424 -2.27215e-18)
(-0.566124 0.032971 5.03501e-18)
(-0.466034 0.0739499 6.23502e-22)
(42.7794 0.0317857 -7.06559e-19)
(46.0638 0.102873 8.23324e-19)
(46.184 0.575735 -9.26243e-19)
(46.2586 0.687942 2.01767e-18)
(46.3431 1.19379 -1.21625e-18)
(46.45 1.51203 8.09235e-20)
(46.5516 1.99387 -8.08397e-19)
(46.6333 2.44478 0)
(46.6862 2.92694 -9.90221e-19)
(46.7103 3.43996 1.19569e-18)
(46.693 3.94485 1.64698e-21)
(46.6281 4.45948 -8.68e-20)
(46.5151 4.95074 7.67629e-19)
(46.3589 5.40571 -6.32908e-20)
(46.1746 5.81138 9.33199e-19)
(45.9721 6.17254 1.45364e-19)
(45.7538 6.48663 0)
(45.5335 6.74579 7.53364e-19)
(45.3236 6.95094 1.80803e-18)
(45.1267 7.10359 0)
(44.9677 7.20093 0)
(44.9071 7.23874 0)
(44.8479 7.31838 -1.21569e-18)
(44.7721 7.35073 -2.368e-18)