/*--------------------------------*- C++ -*----------------------------------*\
| =========                 |                                                 |
| \\      /  F ield         | OpenFOAM: The Open Source CFD Toolbox           |
|  \\    /   O peration     | Version:  v1912                                 |
|   \\  /    A nd           | Website:  www.openfoam.com                      |
|    \\/     M anipulation  |                                                 |
\*---------------------------------------------------------------------------*/
FoamFile
{
    version     2.0;
    format      ascii;
    class       volScalarField;
    location    "0.22";
    object      p;
}
// * * * * * * * * * * * * * * * * * * * * * * * * * * * * * * * * * * * * * //

dimensions      [0 2 -2 0 0 0 0];


internalField   nonuniform List<scalar> 
6600
(
48.6496
43.6563
41.1879
39.7227
39.0301
38.7612
38.8746
39.345
40.1595
41.3155
42.9276
45.0239
47.5058
50.4101
53.7348
57.4682
61.6414
66.246
71.2808
76.7403
82.5952
88.7882
95.234
101.924
108.929
116.069
123.188
130.187
136.969
143.401
149.34
154.641
159.091
162.408
164.331
164.527
162.609
158.221
151.022
140.487
126.157
107.482
83.8787
54.6525
19.142
-23.4096
-73.1652
-131.153
-198.344
-265.972
44.9882
39.6283
37.6079
35.7389
34.6249
33.9056
33.5956
33.7522
34.2901
35.2589
36.5831
38.3001
40.4509
43.0032
45.943
49.2664
53.0001
57.1282
61.6433
66.5371
71.7811
77.3305
83.1276
88.9954
94.9355
101.025
107.078
112.871
118.377
123.483
127.938
131.564
134.181
135.52
135.316
133.225
128.863
121.865
111.847
98.3381
80.8413
58.8013
31.6485
-1.27606
-40.6084
-87.0889
-140.833
-202.204
-271.311
-338.618
39.8647
33.9565
32.7754
30.5419
29.186
28.2525
27.6601
27.5068
27.7883
28.5111
29.6645
31.1455
32.9993
35.26
37.8885
40.8878
44.2603
47.982
52.0405
56.4168
61.0749
65.9718
71.0371
76.1542
81.2646
86.3309
91.2453
95.8479
100.019
103.612
106.428
108.263
108.909
108.102
105.57
101.001
94.01
84.2222
71.2431
54.6293
33.8917
8.51947
-21.9919
-58.2159
-100.733
-150.216
-206.827
-269.828
-337.867
-401.046
33.7123
27.2441
26.6343
24.0944
22.5906
21.4676
20.7277
20.3782
20.4841
21.0001
21.8887
23.1855
24.8356
26.8383
29.1934
31.8971
34.9289
38.2633
41.8792
45.7431
49.8106
54.0471
58.4319
62.7811
66.9639
70.9873
74.7556
78.0738
80.8209
82.8741
84.0108
83.9934
82.6025
79.5873
74.6777
67.5625
57.8922
45.296
29.3827
9.75322
-14.0169
-42.3739
-75.7392
-114.562
-159.294
-210.503
-268.184
-330.922
-396.086
-452.737
26.5573
19.6489
19.1901
16.3502
14.8288
13.5996
12.7182
12.2652
12.153
12.4476
13.166
14.2158
15.6079
17.3449
19.4066
21.7729
24.4246
27.3359
30.4693
33.7806
37.218
40.7291
44.2619
47.7452
51.051
54.0612
56.6657
58.7218
60.0704
60.5463
59.9637
58.098
54.7149
49.5508
42.3375
32.7932
20.5824
5.36466
-13.1926
-35.4427
-61.7315
-92.3937
-127.741
-168.114
-213.843
-265.27
-322.379
-383.475
-444.238
-492.62
18.5836
11.0732
10.4976
7.35464
5.71746
4.33891
3.39336
2.84503
2.62376
2.69808
3.10936
3.89681
5.00115
6.39905
8.09148
10.043
12.24
14.6482
17.2233
19.918
22.6801
25.451
28.1954
30.7794
33.0677
35.0041
36.4501
37.224
37.1762
36.1465
33.9353
30.3161
25.0506
17.8911
8.58539
-3.14394
-17.5681
-34.9716
-55.6471
-79.8649
-107.877
-139.92
-176.205
-216.958
-262.419
-312.812
-367.768
-425.72
-481.159
-519.879
9.03357
1.33707
0.509089
-2.87742
-4.52289
-6.05327
-7.19292
-7.9094
-8.34778
-8.45777
-8.30732
-7.87952
-7.17071
-6.1863
-4.96027
-3.51265
-1.86652
-0.0529236
1.88354
3.88914
5.9119
7.88533
9.73691
11.393
12.7296
13.6234
13.921
13.4629
12.0943
9.6307
5.8785
0.639045
-6.30464
-15.1999
-26.2801
-39.7604
-55.883
-74.8796
-96.9586
-122.324
-151.149
-183.567
-219.68
-259.621
-303.583
-351.821
-403.917
-457.793
-506.902
-535.422
-2.0372
-9.67048
-10.6934
-14.3796
-16.0514
-17.6449
-18.9891
-19.9721
-20.6569
-21.1659
-21.3733
-21.3268
-21.0697
-20.6066
-19.9356
-19.0918
-18.0828
-16.942
-15.717
-14.455
-13.2097
-12.0356
-11.0012
-10.2569
-9.93868
-10.1055
-10.9025
-12.5291
-15.1431
-18.887
-23.9542
-30.5582
-38.9015
-49.1759
-61.5718
-76.2948
-93.5142
-113.393
-136.095
-161.752
-190.459
-222.273
-257.232
-295.393
-336.874
-381.959
-430.551
-479.829
-522.461
-541.906
-15.1468
-22.1337
-23.2512
-27.0222
-28.7809
-30.5291
-32.0773
-33.4626
-34.5065
-35.3262
-35.9714
-36.4675
-36.7763
-36.9025
-36.8785
-36.712
-36.4108
-36.0178
-35.5577
-35.0802
-34.65
-34.3278
-34.1902
-34.3329
-34.8769
-35.9715
-37.7833
-40.4403
-44.0803
-48.8961
-55.0679
-62.7482
-72.0976
-83.2993
-96.5165
-111.881
-129.534
-149.595
-172.154
-197.284
-225.035
-255.409
-288.368
-323.907
-362.134
-403.349
-447.626
-492.239
-529.805
-543.511
-29.6412
-35.8442
-37.0635
-40.8239
-42.6684
-44.7923
-46.6008
-48.24
-49.771
-51.0863
-52.3126
-53.3588
-54.302
-55.1315
-55.836
-56.4132
-56.8938
-57.2894
-57.6214
-57.9415
-58.3092
-58.7715
-59.399
-60.3514
-61.766
-63.7267
-66.3575
-69.8382
-74.3231
-79.9301
-86.8123
-95.1456
-105.081
-116.74
-130.229
-145.671
-163.149
-182.724
-204.453
-228.364
-254.449
-282.671
-312.984
-345.324
-379.65
-416.542
-455.372
-494.279
-527.158
-539.925
-45.263
-50.9945
-52.0698
-55.7095
-57.6907
-60.0518
-62.2902
-64.3098
-66.3533
-68.2908
-70.1268
-71.911
-73.6098
-75.2132
-76.7016
-78.0945
-79.3965
-80.6091
-81.7574
-82.8803
-84.0322
-85.2757
-86.6923
-88.3711
-90.4065
-92.9539
-96.1957
-100.241
-105.193
-111.227
-118.501
-127.114
-137.17
-148.781
-162.044
-177.017
-193.753
-212.286
-232.618
-254.728
-278.581
-304.114
-331.22
-359.784
-389.931
-421.662
-453.712
-484.001
-506.819
-518.94
-61.9122
-66.9882
-68.0598
-71.5472
-73.6921
-76.448
-79.0779
-81.716
-84.2434
-86.9213
-89.5664
-92.1304
-94.6553
-97.1003
-99.4565
-101.72
-103.872
-105.923
-107.884
-109.771
-111.632
-113.522
-115.51
-117.731
-120.308
-123.32
-126.873
-131.138
-136.277
-142.391
-149.588
-158
-167.736
-178.864
-191.429
-205.476
-221.022
-238.055
-256.544
-276.441
-297.662
-320.087
-343.559
-367.831
-393.477
-419.145
-443.118
-461.922
-470.64
-478.608
-79.3486
-83.7839
-84.7329
-88.2053
-90.4747
-93.6435
-96.7329
-100.009
-103.353
-106.712
-110.152
-113.688
-117.157
-120.548
-123.86
-127.041
-130.091
-133.009
-135.782
-138.419
-140.958
-143.449
-145.968
-148.596
-151.386
-154.474
-158.053
-162.23
-167.104
-172.846
-179.597
-187.44
-196.44
-206.658
-218.138
-230.887
-244.88
-260.083
-276.439
-293.85
-312.184
-331.274
-350.824
-370.935
-391.019
-409.968
-426.222
-437.275
-441.01
-443.277
-97.1901
-100.705
-101.706
-105.175
-107.796
-111.37
-115.12
-118.997
-123.184
-127.535
-131.975
-136.467
-140.957
-145.417
-149.767
-153.955
-157.966
-161.77
-165.351
-168.707
-171.845
-174.786
-177.59
-180.366
-183.223
-186.241
-189.511
-193.197
-197.484
-202.499
-208.355
-215.177
-223.055
-232.035
-242.116
-253.277
-265.486
-278.676
-292.743
-307.576
-323.018
-338.787
-354.755
-370.693
-385.853
-399.194
-409.085
-414.384
-420.766
-421.149
-114.698
-117.418
-118.51
-122.069
-124.978
-129.132
-133.53
-138.332
-143.411
-148.757
-154.322
-159.982
-165.657
-171.279
-176.776
-182.102
-187.167
-191.933
-196.376
-200.469
-204.192
-207.555
-210.609
-213.426
-216.043
-218.563
-221.195
-224.081
-227.333
-231.153
-235.728
-241.18
-247.6
-255.03
-263.479
-272.908
-283.23
-294.344
-306.157
-318.539
-331.294
-344.17
-356.934
-369.212
-380.422
-389.709
-395.947
-398.84
-401.448
-402.891
-131.308
-133.088
-134.422
-138.275
-141.65
-146.533
-151.675
-157.365
-163.562
-170.137
-176.965
-183.928
-190.941
-197.907
-204.726
-211.314
-217.571
-223.415
-228.792
-233.648
-237.943
-241.648
-244.767
-247.367
-249.57
-251.496
-253.219
-254.886
-256.758
-259.039
-261.918
-265.588
-270.194
-275.827
-282.483
-290.08
-298.522
-307.701
-317.478
-327.732
-338.258
-348.585
-358.601
-367.985
-376.158
-382.282
-385.774
-389.698
-390.165
-391.419
-146.213
-147.3
-148.925
-153.067
-157.028
-162.683
-168.865
-175.693
-183.079
-190.912
-199.134
-207.605
-216.188
-224.728
-233.082
-241.122
-248.756
-255.875
-262.35
-268.106
-273.074
-277.191
-280.452
-282.888
-284.541
-285.48
-285.917
-286.091
-286.172
-286.425
-287.153
-288.624
-291.079
-294.647
-299.346
-305.127
-311.844
-319.326
-327.47
-336.108
-344.568
-352.64
-360.562
-367.695
-373.219
-376.607
-379.61
-381.437
-382.392
-382.966
-158.917
-159.215
-161.435
-166.004
-170.721
-177.343
-184.475
-192.527
-201.322
-210.751
-220.586
-230.7
-241.004
-251.325
-261.483
-271.296
-280.591
-289.213
-296.997
-303.842
-309.636
-314.27
-317.664
-319.794
-320.768
-320.746
-319.815
-318.122
-316.015
-313.854
-311.998
-310.829
-310.654
-311.765
-314.316
-318.236
-323.359
-329.562
-336.694
-343.851
-350.53
-357.152
-363.211
-368.013
-371.15
-372.943
-374.564
-375.908
-376.941
-377.211
-168.38
-168.636
-171.453
-176.546
-181.964
-189.687
-197.964
-207.366
-217.674
-228.703
-240.302
-252.377
-264.7
-277.081
-289.328
-301.21
-312.489
-322.936
-332.402
-340.677
-347.6
-353.028
-356.849
-359.006
-359.481
-358.304
-355.667
-351.912
-347.321
-342.244
-337.163
-332.627
-329.244
-327.424
-327.39
-329.278
-333.059
-338.632
-344.93
-350.873
-356.847
-362.376
-366.33
-368.489
-369.465
-370.603
-371.321
-372.564
-373.551
-373.834
-173.491
-174.838
-178.337
-184.235
-190.466
-199.344
-208.764
-219.597
-231.549
-244.381
-257.992
-272.144
-286.697
-301.444
-316.103
-330.426
-344.112
-356.87
-368.442
-378.559
-387.017
-393.598
-398.148
-400.474
-400.516
-398.419
-394.297
-388.31
-380.805
-372.315
-363.469
-354.995
-347.568
-341.896
-338.586
-338.006
-340.366
-345.276
-351.183
-357.612
-363.861
-368.204
-369.952
-369.917
-369.719
-369.609
-370.102
-370.997
-371.781
-372.16
-174.48
-177.528
-181.836
-188.556
-195.872
-205.88
-216.385
-228.78
-242.365
-257.033
-272.677
-289.129
-306.201
-323.586
-341.023
-358.201
-374.75
-390.315
-404.519
-417.044
-427.594
-435.941
-441.8
-444.929
-445.146
-442.405
-436.748
-428.505
-418.015
-405.746
-392.363
-378.751
-366.105
-355.496
-347.818
-343.663
-343.825
-348.235
-355.559
-364.075
-370.922
-374.141
-374.482
-373.458
-372.105
-371.154
-370.561
-370.355
-370.473
-370.802
-171.165
-176.64
-181.76
-189.506
-197.897
-209.029
-220.704
-234.51
-249.686
-266.241
-284.046
-302.905
-322.602
-342.878
-363.432
-383.874
-403.798
-422.772
-440.321
-455.987
-469.365
-480.134
-487.898
-492.358
-493.183
-490.293
-483.805
-473.564
-459.912
-443.437
-424.931
-405.491
-386.31
-368.893
-355.002
-345.743
-342.584
-346.493
-355.909
-367.407
-375.92
-379.418
-379.677
-377.991
-375.86
-373.347
-370.929
-369.189
-368.26
-368.08
-164.719
-172.294
-178.073
-186.948
-196.508
-208.528
-221.444
-236.635
-253.251
-271.556
-291.411
-312.674
-335.136
-358.517
-382.473
-406.574
-430.363
-453.329
-474.905
-494.515
-511.582
-525.564
-536.156
-542.91
-545.391
-543.274
-536.345
-524.574
-508.209
-487.653
-463.65
-437.182
-409.75
-383.661
-360.811
-343.316
-334.18
-335.833
-347.711
-364.293
-377.054
-382.487
-382.652
-380.51
-377.287
-373.402
-369.362
-366.052
-364.068
-363.222
-155.184
-164.943
-171.245
-181.247
-191.799
-204.499
-218.529
-234.908
-252.878
-272.861
-294.678
-318.243
-343.412
-369.943
-397.469
-425.539
-453.63
-481.154
-507.467
-531.853
-553.565
-571.944
-586.458
-596.479
-601.411
-600.866
-594.579
-582.386
-563.953
-539.559
-509.884
-476.127
-439.812
-402.799
-367.364
-337.175
-318.442
-316.273
-329.369
-351.287
-369.448
-379.136
-381.276
-379.339
-375.596
-371.183
-366.289
-361.98
-359.135
-357.383
-143.773
-155.163
-161.838
-172.654
-183.817
-197.134
-212.089
-229.348
-248.499
-269.898
-293.458
-319.198
-346.971
-376.572
-407.714
-439.937
-472.67
-505.245
-536.921
-566.882
-594.258
-618.148
-637.68
-652.253
-661.178
-663.742
-659.346
-647.569
-628.235
-601.152
-566.749
-525.728
-479.308
-429.251
-378.788
-333.168
-300.93
-289.291
-300.194
-324.681
-351.071
-367.422
-376.431
-379.642
-378.261
-374.099
-368.684
-363.319
-359.628
-357.281
-130.82
-143.746
-150.53
-161.972
-173.3
-186.994
-202.43
-220.26
-240.278
-262.833
-287.913
-315.509
-345.65
-378.167
-412.817
-449.206
-486.765
-524.758
-562.362
-598.654
-632.605
-663.129
-689.151
-709.753
-723.992
-730.815
-729.692
-720.244
-701.684
-673.424
-635.122
-587.544
-531.904
-469.636
-402.844
-337.25
-286.69
-263.235
-267.802
-293.185
-329.458
-361.115
-380.938
-389.174
-388.77
-384.272
-377.887
-371.318
-366.435
-363.578
-118.175
-130.945
-138.131
-149.603
-160.94
-174.653
-190.157
-208.209
-228.615
-251.835
-277.963
-307.154
-339.362
-374.525
-412.471
-452.904
-495.311
-538.92
-582.818
-626.001
-667.362
-705.647
-739.528
-767.621
-788.769
-802.001
-806.316
-800.658
-784.4
-756.874
-717.257
-665.752
-602.922
-527.395
-441.677
-360.972
-295.941
-260.383
-251.682
-272.276
-312.597
-354.621
-383.286
-396.717
-399.385
-394.549
-387.667
-380.889
-376.192
-374.347
-106.95
-117.51
-125.595
-136.474
-147.526
-161.017
-176.176
-193.975
-214.32
-237.742
-264.471
-294.665
-328.417
-365.77
-406.637
-450.902
-498.045
-547.305
-597.724
-648.237
-697.667
-744.638
-787.582
-824.734
-854.65
-875.852
-887.063
-887.436
-875.824
-851.935
-815.133
-761
-690.519
-602.242
-506.524
-413.037
-339.768
-290.877
-275.159
-286.367
-316.4
-352.175
-379.08
-392.704
-395.497
-392.996
-388.439
-383.863
-381.02
-380.362
-101.635
-104.127
-113.145
-123.162
-133.899
-146.82
-161.393
-178.583
-198.443
-221.459
-248.112
-278.73
-313.447
-352.383
-395.617
-443.28
-494.913
-549.755
-606.752
-664.804
-722.802
-779.244
-832.154
-879.545
-919.786
-950.957
-971.712
-980.8
-976.369
-957.257
-924.627
-868.043
-792.139
-698.025
-599.385
-500.497
-418.554
-363.132
-335.052
-330.297
-343.08
-363.94
-381.27
-390.459
-391.645
-388.042
-384.274
-381.991
-381.359
-381.912
-115.737
-94.3921
-101.838
-110.645
-120.995
-133.35
-147.13
-163.392
-182.352
-204.806
-231.057
-261.502
-296.512
-336.423
-381.374
-431.646
-487.13
-547.061
-610.346
-675.95
-742.713
-809.036
-871.908
-929.782
-981.592
-1024.74
-1056.07
-1076.23
-1082.69
-1068.58
-1036.78
-987.124
-906.299
-815.524
-713.807
-618.909
-535.854
-471.343
-426.919
-402.539
-393.271
-393.275
-395.543
-395.273
-390.793
-385.052
-380.907
-379.628
-380.439
-381.858
62.9787
58.1158
55.6904
54.31
53.6872
53.562
53.837
54.531
55.6263
57.1287
59.1285
61.6578
64.6375
68.0934
72.0606
76.5151
81.4824
86.9671
92.9628
99.4783
106.481
113.897
121.64
129.89
138.574
147.41
156.292
165.343
174.383
183.211
191.741
199.868
207.389
214.039
219.623
223.874
226.441
226.996
225.213
220.68
212.91
201.434
185.734
165.182
139.212
107.213
68.6458
23.1465
-32.0949
-86.8686
59.4464
54.2843
52.3281
50.6053
49.5947
49.0332
48.9516
49.3695
50.22
51.5401
53.3104
55.5057
58.1903
61.3535
64.9918
69.0941
73.6814
78.7503
84.2828
90.2891
96.7489
103.661
110.837
118.147
125.822
133.818
141.762
149.608
157.415
164.994
172.099
178.613
184.361
189.088
192.563
194.548
194.669
192.583
187.971
180.421
169.395
154.419
134.977
110.46
80.2982
43.802
0.683101
-49.1294
-107.37
-163.708
54.5457
48.9084
47.7757
45.7391
44.5583
43.8227
43.5104
43.6565
44.3153
45.4433
47.0743
49.1259
51.6016
54.5493
57.9583
61.8146
66.1265
70.8747
76.041
81.6166
87.5694
93.8934
100.484
107.186
114.025
120.973
127.926
134.72
141.225
147.339
152.883
157.683
161.535
164.17
165.376
164.9
162.378
157.476
149.862
139.105
124.709
106.203
83.0995
54.8452
20.8946
-19.4092
-66.2316
-119.044
-177.693
-232.054
48.6557
42.5551
42.0098
39.676
38.4524
37.599
37.1667
37.1863
37.7115
38.7328
40.1948
42.1215
44.4837
47.281
50.5109
54.1706
58.2381
62.6951
67.5177
72.6749
78.1249
83.8882
89.9053
95.912
101.895
107.889
113.753
119.33
124.537
129.2
133.127
136.136
138.01
138.511
137.39
134.387
129.184
121.449
110.826
96.8977
79.246
57.436
31.0441
-0.380556
-37.3146
-80.3418
-129.52
-183.573
-241.089
-291.492
41.8698
35.3069
35.0406
32.4145
31.2254
30.3329
29.8306
29.8199
30.2191
31.0764
32.444
34.2223
36.4251
39.0433
42.0753
45.4943
49.2795
53.4121
57.853
62.5577
67.4586
72.5299
77.7781
83.093
88.3023
93.3265
98.1241
102.535
106.386
109.546
111.838
113.074
113.024
111.431
108.062
102.649
94.8856
84.4632
71.0452
54.2696
33.7838
9.24012
-19.7076
-53.4235
-92.2619
-136.651
-186.574
-240.55
-295.914
-340.833
34.2603
27.1638
26.8892
23.9981
22.7187
21.7189
21.2181
21.1704
21.5392
22.2792
23.4158
25.0003
27.0029
29.383
32.1333
35.2287
38.6502
42.3689
46.3468
50.5332
54.856
59.2957
63.8155
68.2749
72.5892
76.6761
80.3598
83.5409
86.099
87.8246
88.5437
88.0713
86.1833
82.6422
77.1983
69.5926
59.5545
46.8043
31.0493
11.9937
-10.6304
-37.0969
-67.6564
-102.566
-142.102
-186.565
-235.926
-288.612
-340.599
-378.727
25.1833
17.9667
17.447
14.3878
13.1217
12.0077
11.357
11.216
11.451
12.0674
13.0132
14.3279
16.006
18.0477
20.418
23.0959
26.0515
29.2649
32.6915
36.2881
39.9778
43.6889
47.4077
51.0614
54.4866
57.5811
60.233
62.2668
63.5214
63.8561
63.0888
61.0413
57.4972
52.2069
44.9598
35.5262
23.6476
9.09261
-8.36486
-28.9478
-52.8645
-80.2966
-111.412
-146.4
-185.506
-229.039
-276.647
-326.755
-374.522
-404.809
14.8736
7.56537
6.78609
3.50549
2.23584
1.11598
0.320389
-0.0415814
-0.0315878
0.271522
0.936367
1.93467
3.24841
4.84434
6.74108
8.89821
11.3048
13.9282
16.7241
19.6616
22.6727
25.7146
28.6784
31.4102
33.8982
36.0549
37.6572
38.5713
38.6733
37.7757
35.7035
32.273
27.2905
20.5732
11.9102
1.08931
-12.0811
-27.7869
-46.2089
-67.5155
-91.8402
-119.308
-150.011
-184.057
-221.662
-263.25
-308.512
-355.15
-397.691
-420.112
2.4547
-4.28754
-5.22856
-8.56497
-9.88614
-11.1197
-12.0504
-12.7559
-13.0518
-13.0339
-12.7197
-12.1628
-11.3475
-10.2513
-8.92082
-7.36136
-5.57784
-3.60892
-1.48974
0.743555
3.02276
5.26232
7.43372
9.42613
11.0656
12.261
12.9209
12.8691
11.9326
9.95918
6.78585
2.26438
-3.77822
-11.5425
-21.1771
-32.8356
-46.6928
-62.8911
-81.5547
-102.793
-126.703
-153.347
-182.767
-215.053
-250.364
-288.985
-331.077
-373.774
-410.944
-426.752
-11.5403
-17.4808
-18.5126
-21.8344
-23.2374
-24.8101
-25.9622
-26.8596
-27.5585
-27.93
-28.1281
-28.0662
-27.7818
-27.3082
-26.6142
-25.702
-24.6068
-23.3359
-21.9269
-20.4204
-18.8606
-17.2904
-15.8453
-14.6848
-13.8482
-13.4355
-13.6153
-14.513
-16.2614
-19.0249
-22.9565
-28.2183
-34.9661
-43.3125
-53.399
-65.3682
-79.3253
-95.3666
-113.585
-134.059
-156.831
-181.938
-209.374
-239.137
-271.408
-306.584
-344.224
-382.325
-415.021
-427.325
-26.929
-32.2516
-33.1061
-36.2712
-37.7852
-39.5399
-41.0697
-42.2677
-43.3917
-44.3459
-45.0616
-45.6408
-46.0359
-46.2298
-46.2256
-46.0389
-45.6711
-45.1265
-44.4425
-43.6589
-42.83
-42.0327
-41.2916
-40.7028
-40.4474
-40.661
-41.4597
-42.9391
-45.2362
-48.5091
-52.897
-58.515
-65.4859
-73.9586
-84.0228
-95.7547
-109.248
-124.571
-141.773
-160.883
-181.923
-204.881
-229.726
-256.426
-284.936
-315.824
-347.992
-379.804
-406.385
-418.246
-43.3849
-47.9647
-48.813
-51.7849
-53.4252
-55.514
-57.3678
-59.1453
-60.6806
-62.2374
-63.6899
-64.9499
-66.0622
-67.0096
-67.7652
-68.3361
-68.7123
-68.9103
-68.9439
-68.8378
-68.6374
-68.3883
-68.2203
-68.26
-68.5405
-69.1431
-70.246
-72.0155
-74.5551
-77.9722
-82.3865
-87.9388
-94.756
-102.897
-112.444
-123.483
-136.052
-150.173
-165.864
-183.132
-201.951
-222.285
-244.04
-267.052
-291.62
-317.285
-342.73
-365.435
-381.13
-391.767
-60.7269
-64.7336
-65.4132
-68.2881
-70.0034
-72.4425
-74.6909
-76.9934
-79.2734
-81.4563
-83.5815
-85.7111
-87.6768
-89.4392
-91.0396
-92.4182
-93.5836
-94.5354
-95.2763
-95.8311
-96.2472
-96.5893
-96.8806
-97.1795
-97.6352
-98.4342
-99.6614
-101.382
-103.754
-106.93
-111.031
-116.142
-122.338
-129.733
-138.385
-148.316
-159.551
-172.095
-185.931
-201.009
-217.276
-234.631
-252.899
-272.098
-292.033
-311.801
-330.03
-343.745
-349.428
-355.413
-78.5493
-81.7581
-82.492
-85.3282
-87.3355
-90.1071
-92.9745
-95.8291
-98.8433
-101.889
-104.925
-107.884
-110.74
-113.465
-115.955
-118.202
-120.195
-121.907
-123.34
-124.496
-125.393
-126.068
-126.636
-127.228
-127.838
-128.506
-129.427
-130.787
-132.693
-135.254
-138.581
-142.807
-148.054
-154.345
-161.718
-170.224
-179.858
-190.577
-202.319
-215.02
-228.563
-242.807
-257.578
-272.955
-288.141
-302.145
-313.846
-321.801
-326.689
-329.007
-96.4288
-98.7721
-99.5586
-102.475
-104.773
-108.048
-111.472
-115.163
-119.01
-122.958
-126.969
-130.998
-134.921
-138.661
-142.168
-145.4
-148.295
-150.831
-152.988
-154.761
-156.158
-157.229
-157.986
-158.455
-158.768
-159.109
-159.572
-160.225
-161.225
-162.76
-164.989
-168.019
-171.903
-176.744
-182.598
-189.45
-197.274
-206.019
-215.616
-225.945
-236.87
-248.201
-259.825
-271.478
-282.63
-292.433
-299.81
-303.882
-308.745
-310.189
-113.68
-115.131
-116.061
-119.207
-121.931
-125.907
-130.034
-134.566
-139.407
-144.501
-149.693
-154.854
-159.955
-164.882
-169.537
-173.838
-177.737
-181.171
-184.097
-186.476
-188.282
-189.518
-190.28
-190.687
-190.76
-190.524
-190.105
-189.713
-189.545
-189.74
-190.436
-191.804
-194.039
-197.193
-201.268
-206.295
-212.246
-219.043
-226.565
-234.705
-243.331
-252.174
-261.108
-269.897
-277.97
-284.512
-288.792
-292.313
-294.355
-295.975
-129.712
-130.288
-131.463
-134.872
-138.14
-142.797
-147.892
-153.468
-159.475
-165.736
-172.217
-178.757
-185.207
-191.513
-197.529
-203.116
-208.192
-212.677
-216.491
-219.582
-221.921
-223.499
-224.311
-224.389
-223.787
-222.691
-221.275
-219.631
-217.896
-216.312
-215.144
-214.619
-214.847
-215.97
-218.095
-221.213
-225.273
-230.183
-235.864
-242.239
-248.876
-255.599
-262.417
-268.935
-274.687
-278.98
-281.602
-284.03
-285.327
-286.438
-143.509
-143.522
-145.192
-148.969
-152.983
-158.536
-164.578
-171.332
-178.616
-186.377
-194.327
-202.375
-210.435
-218.331
-225.902
-232.99
-239.46
-245.184
-250.067
-254.022
-256.955
-258.796
-259.549
-259.341
-258.272
-256.327
-253.605
-250.324
-246.776
-243.196
-239.798
-236.83
-234.655
-233.505
-233.442
-234.5
-236.666
-239.907
-244.152
-248.927
-253.812
-258.967
-264.094
-268.713
-272.36
-274.856
-277.324
-278.464
-279.496
-280.073
-154.49
-154.23
-156.647
-160.961
-165.695
-172.277
-179.415
-187.472
-196.247
-205.515
-215.164
-225.038
-234.911
-244.63
-254.024
-262.913
-271.082
-278.343
-284.574
-289.646
-293.429
-295.848
-296.876
-296.498
-294.702
-291.605
-287.51
-282.577
-276.953
-270.89
-264.779
-259.09
-254.131
-250.197
-247.582
-246.408
-246.681
-248.342
-251.174
-254.608
-258.511
-262.677
-266.281
-268.952
-270.725
-272.367
-273.648
-274.706
-275.566
-275.885
-161.635
-162.16
-165.255
-170.335
-175.907
-183.599
-192.013
-201.436
-211.766
-222.824
-234.362
-246.18
-258.155
-270.028
-281.567
-292.57
-302.763
-311.919
-319.861
-326.386
-331.338
-334.56
-335.905
-335.409
-333.202
-329.388
-323.955
-317.063
-309.06
-300.342
-291.283
-282.228
-273.746
-266.475
-260.81
-256.998
-255.099
-255.063
-256.807
-259.674
-263.213
-266.47
-268.574
-269.72
-270.191
-270.744
-271.538
-272.416
-273.133
-273.407
-164.996
-166.916
-170.801
-176.618
-183.237
-192.1
-201.619
-212.623
-224.614
-237.424
-251.01
-265.077
-279.405
-293.715
-307.776
-321.283
-333.931
-345.43
-355.499
-363.926
-370.501
-375.015
-377.307
-377.28
-374.887
-370.153
-363.303
-354.597
-344.262
-332.561
-319.877
-306.93
-294.44
-283.014
-273.386
-266.171
-261.597
-259.885
-260.878
-263.837
-267.37
-269.815
-271.053
-271.207
-271.119
-270.886
-270.992
-271.363
-271.759
-272.018
-164.029
-168.118
-172.832
-179.71
-187.291
-197.476
-208.189
-220.621
-234.323
-249.095
-264.73
-281.116
-298.038
-315.116
-332.047
-348.469
-364.043
-378.402
-391.178
-402.073
-410.816
-417.116
-420.729
-421.459
-419.285
-414.325
-406.553
-396.088
-383.207
-368.315
-352.006
-334.761
-317.233
-300.503
-285.769
-273.98
-265.659
-261.56
-261.659
-265.18
-269.567
-272.548
-273.673
-273.694
-272.987
-271.998
-271.101
-270.558
-270.316
-270.353
-159.426
-165.676
-171.231
-179.318
-188.036
-199.413
-211.257
-225.231
-240.505
-257.111
-274.94
-293.773
-313.366
-333.426
-353.575
-373.347
-392.344
-410.125
-426.223
-440.23
-451.773
-460.535
-466.229
-468.575
-467.363
-462.504
-453.984
-442.06
-427.005
-409.16
-388.783
-366.465
-343.292
-320.398
-299.084
-280.767
-266.677
-258.338
-257.355
-262.172
-268.816
-273.571
-275.327
-275.196
-273.931
-272.149
-270.353
-269.015
-268.254
-267.938
-151.223
-160.127
-166.265
-175.558
-185.462
-197.754
-210.746
-226.176
-243.011
-261.393
-281.287
-302.553
-324.936
-348.119
-371.698
-395.208
-418.113
-439.873
-459.958
-477.826
-492.98
-505.021
-513.525
-518.024
-518.286
-514.259
-506.014
-493.379
-476.483
-455.541
-431.186
-404.117
-374.839
-344.496
-314.714
-287.526
-265.312
-251.788
-248.847
-254.133
-263.171
-270.399
-273.913
-274.147
-272.828
-270.869
-268.804
-267.049
-265.923
-265.132
-141.047
-151.696
-158.503
-168.732
-179.586
-192.494
-206.746
-223.423
-241.513
-261.611
-283.535
-307.14
-332.238
-358.587
-385.772
-413.294
-440.517
-466.803
-491.526
-514.018
-533.653
-549.838
-562.014
-569.781
-572.696
-570.469
-562.947
-550.127
-531.993
-508.881
-481.149
-449.028
-413.018
-374.606
-335.633
-298.017
-265.809
-244.33
-237.396
-241.101
-251.696
-261.851
-268.603
-272.067
-272.765
-271.499
-269.41
-267.378
-265.906
-264.754
-129.144
-141.432
-148.521
-159.696
-170.957
-184.347
-199.492
-216.837
-236.18
-257.772
-281.494
-307.29
-335.028
-364.464
-395.27
-426.957
-458.827
-490.123
-520.047
-547.883
-572.833
-594.132
-611.137
-623.155
-629.486
-629.863
-624.235
-612.424
-594.394
-569.854
-538.791
-502.087
-460.726
-415.129
-365.915
-315.282
-271.29
-241.982
-229.329
-230.558
-240.918
-255.424
-266.391
-272.957
-275.373
-274.671
-272.577
-270.165
-268.386
-267.209
-117.536
-129.715
-137.219
-148.568
-160.011
-173.71
-189.189
-207.122
-227.194
-249.94
-275.141
-302.894
-333.059
-365.459
-399.822
-435.709
-472.449
-509.064
-544.691
-578.475
-609.578
-637.055
-659.917
-677.29
-688.477
-692.988
-690.377
-680.423
-663.201
-638.381
-606.045
-566.477
-520.121
-466.733
-406.029
-346.844
-293.164
-255.384
-232.975
-228.266
-237.74
-252.687
-265.805
-274.463
-277.882
-277.512
-275.277
-272.963
-271.51
-270.89
-107.043
-117.202
-125.488
-136.452
-147.763
-161.452
-176.811
-194.783
-215.348
-238.744
-264.899
-294.113
-326.318
-361.466
-399.21
-439.233
-480.879
-523.084
-564.761
-605.041
-643.048
-677.623
-707.406
-731.428
-748.678
-758.288
-759.802
-753.036
-737.985
-715.226
-683.729
-641.644
-589.559
-527.411
-460.64
-394.05
-337.18
-291.139
-261.967
-250.14
-250.516
-258.109
-266.576
-272.983
-275.686
-275.207
-274.08
-272.813
-272.209
-272.305
-102.357
-104.584
-113.689
-123.888
-134.914
-148.264
-163.305
-180.997
-201.405
-224.839
-251.452
-281.507
-315.153
-352.542
-393.391
-437.316
-483.932
-531.822
-579.874
-627.014
-672.485
-714.968
-752.625
-784.509
-809.243
-825.421
-832.773
-831.053
-819.561
-798.115
-768.092
-722.411
-665.434
-596.787
-527.719
-460.174
-399.118
-348.755
-314.972
-293.404
-282.491
-278.236
-277.801
-277.658
-275.956
-273.7
-271.913
-271.324
-271.506
-272.231
-116.748
-95.5742
-102.949
-111.974
-122.751
-135.527
-150.045
-167.049
-187.077
-210.108
-236.488
-266.876
-301.449
-340.358
-383.754
-430.902
-481.501
-534.792
-589.501
-644.028
-697.249
-747.71
-793.754
-834.328
-867.929
-891.65
-906.497
-911.913
-904.923
-883.497
-853.284
-809.549
-746.976
-679.071
-608.108
-539.804
-478.953
-427.035
-384.23
-351.469
-327.958
-311.447
-299.165
-289.557
-281.645
-275.403
-271.799
-270.901
-271.507
-272.504
-97.1595
-83.0636
-91.3617
-101.369
-112.426
-124.723
-138.909
-155.605
-174.594
-196.885
-223.395
-254.686
-290.553
-331.439
-378.111
-429.913
-485.304
-544.992
-608.333
-672.831
-735.534
-794.999
-850.234
-899.397
-941.371
-974.118
-996.349
-1008.78
-1006.32
-990.718
-947.776
-889.383
-823.077
-752.203
-678.146
-609.491
-545.088
-488.877
-440.751
-401.457
-369.789
-344.725
-324.267
-307.101
-292.571
-281.199
-274.169
-271.607
-272.66
-273.946
-84.4561
-82.6006
-88.3461
-97.02
-107.756
-120.065
-134.788
-152.555
-173.254
-197.993
-227.425
-262.013
-302.061
-348.318
-401.818
-461.544
-526.03
-594.024
-665.342
-738.422
-809.99
-878.023
-941.1
-997.924
-1044.44
-1078.57
-1098.73
-1104.09
-1088.84
-1050.06
-997.392
-934.321
-865.661
-793.642
-721.083
-651.187
-588.113
-531.959
-482.641
-439.591
-402.884
-371.847
-345.68
-323.592
-305.215
-290.605
-280.283
-275.319
-275.006
-277.045
-75.7104
-82.1131
-88.3473
-96.6826
-107.214
-120.243
-136.86
-157.305
-181.959
-210.689
-244.268
-284.234
-331.777
-387.353
-449.886
-518.162
-592.207
-671.274
-753.353
-835.828
-915.573
-990.211
-1058.44
-1117.27
-1163.1
-1191.64
-1201.12
-1186.73
-1154.3
-1106.73
-1047.89
-981.043
-909.84
-837.158
-766.719
-697.664
-632.873
-573.293
-519.62
-472.04
-430.363
-394.522
-364.076
-338.57
-317.584
-300.909
-288.603
-281.112
-278.762
-282.175
-69.7312
-78.1936
-86.0494
-95.397
-107.148
-122.007
-140.634
-163.377
-191.102
-224.262
-263.734
-311.669
-368.11
-432.454
-504.872
-586.062
-674.609
-768.088
-862.631
-953.929
-1040.8
-1119.87
-1190.63
-1249.24
-1289.01
-1303.32
-1293.04
-1264.74
-1221.63
-1166.43
-1102.05
-1032.37
-958.771
-883.917
-809.235
-737.417
-668.879
-605.665
-547.962
-496.172
-450.46
-410.856
-377.309
-349.501
-326.981
-309.324
-296.15
-287.51
-284.212
-287.168
-63.4858
-71.8132
-80.9133
-91.8151
-104.862
-121.082
-141.411
-166.624
-198.115
-236.612
-282.801
-337.561
-402.327
-478.465
-566.56
-665.641
-771.46
-878.939
-984.113
-1084.41
-1178.32
-1264.48
-1335.55
-1384.98
-1404.39
-1400.97
-1377.39
-1337.84
-1285.31
-1223.04
-1152.72
-1078.12
-1000.04
-920.815
-842.619
-766.906
-694.969
-627.781
-566.511
-511.381
-462.437
-420.113
-384.412
-355.067
-331.599
-313.504
-300.26
-291.65
-288.161
-289.182
-55.0095
-63.6123
-73.2081
-84.6152
-98.4085
-115.89
-137.955
-166.608
-202.436
-246.091
-298.22
-360.405
-437.088
-530.865
-639.513
-757.509
-879.344
-1000.37
-1117.79
-1229.9
-1333.15
-1418.89
-1475.1
-1500.48
-1502.01
-1483.87
-1448.77
-1398.62
-1338
-1268.18
-1191.87
-1111.17
-1028.82
-945.231
-863.176
-784.087
-708.808
-638.536
-574.268
-516.602
-465.388
-421.078
-383.948
-353.693
-329.75
-311.573
-298.576
-290.428
-287.084
-286.932
-45.1582
-53.1417
-62.5998
-73.5135
-87.2539
-105.912
-129.994
-162.481
-202.144
-249.823
-309.326
-384.614
-479.702
-593.629
-722.444
-859.478
-998.423
-1136.24
-1269.29
-1389.98
-1488.42
-1550.39
-1583.71
-1591.37
-1578.33
-1547.15
-1501.71
-1442.55
-1373.55
-1297.35
-1215.13
-1129.76
-1042.93
-955.904
-870.293
-788.128
-710.273
-637.499
-571.225
-511.736
-458.936
-413.607
-375.748
-345.048
-320.918