/*--------------------------------*- C++ -*----------------------------------*\
| =========                 |                                                 |
| \\      /  F ield         | OpenFOAM: The Open Source CFD Toolbox           |
|  \\    /   O peration     | Version:  v1912                                 |
|   \\  /    A nd           | Website:  www.openfoam.com                      |
|    \\/     M anipulation  |                                                 |
\*---------------------------------------------------------------------------*/
FoamFile
{
    version     2.0;
    format      ascii;
    class       surfaceScalarField;
    location    "0.22";
    object      phi;
}
// * * * * * * * * * * * * * * * * * * * * * * * * * * * * * * * * * * * * * //

dimensions      [0 3 -1 0 0 0 0];
oriented        oriented;


internalField   nonuniform List<scalar> 
13060
(
0.00530519
0.988949
-0.994255
0.00667126
0.946787
-0.948153
0.00731845
0.901574
-0.902221
0.00759022
0.859146
-0.859418
0.00753972
0.819617
-0.819567
0.00725486
0.782366
-0.782081
0.00671975
0.746844
-0.746309
0.00594986
0.712903
-0.712133
0.00504407
0.680279
-0.679373
0.00442368
0.648793
-0.648172
0.00399692
0.61869
-0.618263
0.00351661
0.590032
-0.589551
0.00315006
0.562428
-0.562061
0.00292397
0.535982
-0.535756
0.00275666
0.510653
-0.510485
0.00264407
0.486245
-0.486133
0.0025781
0.46286
-0.462794
0.00254074
0.440378
-0.44034
0.00252788
0.418835
-0.418822
0.00252548
0.398199
-0.398197
0.00253876
0.378477
-0.37849
0.00261571
0.35958
-0.359657
0.00293373
0.341342
-0.34166
0.00324238
0.324024
-0.324333
0.00336509
0.30772
-0.307843
0.00336136
0.292068
-0.292065
0.00331297
0.276981
-0.276933
0.00313721
0.262707
-0.262531
0.00287643
0.249225
-0.248964
0.00267558
0.236366
-0.236165
0.00249965
0.224154
-0.223978
0.00229277
0.212619
-0.212412
0.00203707
0.201725
-0.201469
0.00174344
0.191352
-0.191059
0.00142919
0.181575
-0.18126
0.00105324
0.172447
-0.172071
0.000637703
0.163873
-0.163458
0.000218803
0.155815
-0.155396
-0.000238012
0.148264
-0.147807
-0.000740228
0.1412
-0.140698
-0.00123578
0.134564
-0.134069
-0.00171804
0.128341
-0.127858
-0.00219076
0.122508
-0.122035
-0.00262825
0.117123
-0.116686
-0.00302951
0.112083
-0.111682
-0.00333598
0.107414
-0.107108
-0.00368288
0.102703
-0.102356
-0.00360045
0.0988669
-0.0989493
-0.00255758
0.0898876
-0.0909305
0.0598545
-0.0624121
0.00560917
0.98334
0.00569083
0.946705
0.00508602
0.902178
0.00399453
0.860238
0.00291745
0.820694
0.00199178
0.783291
0.00140497
0.747431
0.00106668
0.713241
0.000832124
0.680514
0.000397576
0.649227
-0.000116073
0.619203
-0.00039689
0.590312
-0.000697279
0.562728
-0.00102897
0.536314
-0.0013199
0.510944
-0.00156526
0.486491
-0.00176027
0.463055
-0.00191721
0.440535
-0.00203785
0.418956
-0.00213673
0.398298
-0.00223022
0.378571
-0.00236435
0.359714
-0.00275628
0.341734
-0.00325436
0.324522
-0.00345456
0.307921
-0.00348431
0.292098
-0.00356346
0.27706
-0.00357708
0.262721
-0.00349351
0.249142
-0.00351767
0.23639
-0.00365156
0.224288
-0.00379931
0.212767
-0.00394235
0.201868
-0.00411469
0.191525
-0.0043302
0.18179
-0.00454162
0.172658
-0.00475434
0.164086
-0.00498844
0.156049
-0.00521666
0.148492
-0.00542982
0.141414
-0.00563102
0.134765
-0.00579763
0.128507
-0.00591448
0.122624
-0.00596068
0.117169
-0.00592199
0.112045
-0.00578535
0.107278
-0.00566222
0.10258
-0.00490032
0.098105
-0.00323561
0.0882229
0.0566189
0.00460826
0.978732
0.00477571
0.946538
0.00396419
0.90299
0.00260828
0.861594
0.00137465
0.821928
3.47729e-05
0.784631
-0.00140454
0.74887
-0.00296532
0.714802
-0.00439159
0.68194
-0.00541151
0.650247
-0.00626043
0.620052
-0.00718676
0.591239
-0.00792285
0.563464
-0.0084694
0.536861
-0.00892158
0.511396
-0.00930154
0.48687
-0.0096139
0.463367
-0.00987458
0.440795
-0.0100942
0.419176
-0.0102794
0.398483
-0.010419
0.37871
-0.0104676
0.359762
-0.0101471
0.341413
-0.00978535
0.32416
-0.00975093
0.307886
-0.0097768
0.292124
-0.00973728
0.277021
-0.00982676
0.26281
-0.0100028
0.249318
-0.0100601
0.236448
-0.0100444
0.224272
-0.010047
0.212769
-0.0100675
0.201889
-0.0100852
0.191542
-0.0100858
0.181791
-0.0101079
0.17268
-0.0101371
0.164115
-0.0101409
0.156053
-0.0101275
0.148479
-0.0100805
0.141366
-0.00998222
0.134667
-0.00982631
0.128351
-0.00960789
0.122406
-0.00930132
0.116863
-0.0088983
0.111642
-0.00837839
0.106758
-0.0077311
0.101933
-0.00637406
0.096748
-0.00399801
0.0858469
0.0526209
0.00359732
0.975135
0.00247282
0.947662
0.000434447
0.905028
-0.00166895
0.863697
-0.00375195
0.824011
-0.00532105
0.7862
-0.00657663
0.750126
-0.00756792
0.715793
-0.00847355
0.682846
-0.00952223
0.651296
-0.0103988
0.620929
-0.011048
0.591888
-0.0117349
0.564151
-0.0123943
0.53752
-0.0129775
0.511979
-0.0134861
0.487379
-0.013923
0.463804
-0.0142983
0.441171
-0.0146111
0.419488
-0.0148712
0.398743
-0.0150886
0.378928
-0.015321
0.359995
-0.0158225
0.341915
-0.0163522
0.32469
-0.0165288
0.308063
-0.0165663
0.292162
-0.0166277
0.277082
-0.0165477
0.26273
-0.0163456
0.249116
-0.0162302
0.236332
-0.0161856
0.224228
-0.016124
0.212708
-0.0160247
0.201789
-0.0159148
0.191432
-0.0158134
0.181689
-0.0156612
0.172528
-0.0154653
0.163919
-0.0152437
0.155832
-0.0149737
0.148209
-0.0146412
0.141034
-0.0142425
0.134268
-0.0137612
0.12787
-0.0131854
0.12183
-0.0125077
0.116185
-0.0117024
0.110836
-0.0106955
0.105751
-0.00962755
0.100865
-0.00786885
0.0949893
-0.00476375
0.0827418
0.0478571
0.00232105
0.972814
0.000976297
0.949007
-0.00137517
0.90738
-0.00323793
0.86556
-0.00533382
0.826107
-0.00763227
0.788499
-0.00984312
0.752336
-0.0120726
0.718023
-0.0140367
0.68481
-0.0155112
0.65277
-0.0169101
0.622328
-0.0182645
0.593242
-0.0193397
0.565226
-0.0202231
0.538403
-0.0209761
0.512732
-0.0216217
0.488025
-0.0221745
0.464357
-0.0226433
0.441639
-0.0230318
0.419877
-0.0233463
0.399058
-0.0235786
0.37916
-0.0236792
0.360095
-0.0233959
0.341631
-0.0229927
0.324287
-0.022907
0.307977
-0.0229122
0.292167
-0.0228067
0.276977
-0.0227794
0.262703
-0.0228434
0.249179
-0.0227667
0.236256
-0.0225563
0.224017
-0.0223196
0.212471
-0.022073
0.201543
-0.0217857
0.191145
-0.0214396
0.181343
-0.0210796
0.172168
-0.0206802
0.16352
-0.0202127
0.155364
-0.0196836
0.14768
-0.0190828
0.140433
-0.0183896
0.133575
-0.0176016
0.127082
-0.0167189
0.120948
-0.0157098
0.115176
-0.0145884
0.109715
-0.0133387
0.104501
-0.0118347
0.0993608
-0.00952708
0.0926817
-0.00559956
0.0788143
0.0422576
0.00103414
0.97178
-0.00189061
0.951932
-0.00524777
0.910737
-0.00828356
0.868596
-0.0109556
0.828779
-0.0131234
0.790667
-0.0151086
0.754322
-0.0166937
0.719608
-0.0181731
0.686289
-0.0197364
0.654334
-0.0210119
0.623603
-0.0220396
0.59427
-0.0230606
0.566247
-0.0240238
0.539367
-0.0248878
0.513596
-0.0256523
0.488789
-0.0263166
0.465021
-0.0268897
0.442212
-0.0273739
0.420361
-0.0277833
0.399467
-0.0281297
0.379506
-0.0284608
0.360427
-0.0290839
0.342254
-0.0297045
0.324908
-0.029857
0.30813
-0.0298023
0.292112
-0.0297892
0.276964
-0.0296055
0.262519
-0.0292187
0.248793
-0.0288931
0.23593
-0.0286246
0.223749
-0.0283007
0.212147
-0.0278955
0.201137
-0.0274466
0.190696
-0.0269726
0.180869
-0.0264109
0.171606
-0.025769
0.162878
-0.0250618
0.154657
-0.0242699
0.146888
-0.0233839
0.139547
-0.0224042
0.132595
-0.0213189
0.125997
-0.0201167
0.119745
-0.0188032
0.113862
-0.0173636
0.108275
-0.0158994
0.103037
-0.0139351
0.0973966
-0.01115
0.0898966
-0.00639417
0.0740584
0.0358634
0.000336352
0.971443
-0.00325107
0.955519
-0.00673766
0.914224
-0.00961007
0.871468
-0.0128234
0.831992
-0.015922
0.793765
-0.0188109
0.757211
-0.0215081
0.722305
-0.0238946
0.688676
-0.025881
0.65632
-0.0278291
0.625551
-0.0296813
0.596122
-0.0311677
0.567734
-0.0324066
0.540605
-0.033481
0.51467
-0.0344133
0.489721
-0.0352146
0.465822
-0.0358918
0.44289
-0.036448
0.420917
-0.0368833
0.399903
-0.0371864
0.379809
-0.0373086
0.360549
-0.0369825
0.341928
-0.0364819
0.324407
-0.036321
0.307969
-0.0362504
0.292041
-0.0359977
0.276711
-0.0357778
0.2623
-0.0356536
0.248668
-0.0353713
0.235648
-0.0349048
0.223282
-0.0343609
0.211603
-0.0337725
0.200549
-0.033111
0.190035
-0.0323574
0.180116
-0.0315589
0.170808
-0.0306945
0.162013
-0.0297362
0.153699
-0.0286912
0.145843
-0.0275552
0.138411
-0.026316
0.131356
-0.0249783
0.124659
-0.023559
0.118326
-0.0220277
0.112331
-0.0203867
0.106634
-0.0186499
0.1013
-0.0163297
0.0950763
-0.012914
0.0864809
-0.00718833
0.0683327
0.0286751
-0.00083969
0.972283
-0.00607323
0.960753
-0.010765
0.918915
-0.0147925
0.875495
-0.0182329
0.835433
-0.0211756
0.796708
-0.0237328
0.759768
-0.025967
0.724539
-0.0280144
0.690723
-0.0300128
0.658318
-0.031652
0.62719
-0.0330528
0.597523
-0.0344628
0.569144
-0.0357813
0.541924
-0.0369611
0.51585
-0.0380049
0.490765
-0.0389123
0.46673
-0.0396931
0.44367
-0.0403498
0.421574
-0.0408955
0.400448
-0.0413522
0.380266
-0.0417821
0.360979
-0.0424848
0.342631
-0.0431592
0.325081
-0.043283
0.308092
-0.043096
0.291854
-0.0429264
0.276541
-0.0425854
0.261959
-0.0419751
0.248058
-0.041349
0.235022
-0.0407643
0.222698
-0.0401101
0.210949
-0.0393359
0.199775
-0.0384857
0.189185
-0.0375915
0.179221
-0.0365882
0.169805
-0.0354848
0.16091
-0.0342995
0.152513
-0.0330184
0.144562
-0.0316356
0.137028
-0.0301589
0.129879
-0.0285909
0.123091
-0.0269155
0.116651
-0.0251666
0.110582
-0.0234498
0.104917
-0.0213317
0.099182
-0.0186261
0.0923708
-0.0145199
0.0823747
-0.00791385
0.0617267
0.0207612
-0.00133161
0.973614
-0.00673568
0.966157
-0.0115219
0.923702
-0.0158489
0.879822
-0.0198735
0.839457
-0.0236464
0.800481
-0.0272546
0.763376
-0.0305061
0.727791
-0.033431
0.693648
-0.0360256
0.660913
-0.0385666
0.629731
-0.0408629
0.599819
-0.0427777
0.571059
-0.0444213
0.543568
-0.045864
0.517293
-0.0471204
0.492022
-0.0482019
0.467811
-0.0491123
0.444581
-0.0498552
0.422317
-0.0504283
0.401021
-0.0508099
0.380648
-0.0509309
0.3611
-0.0505606
0.342261
-0.049948
0.324469
-0.0496358
0.30778
-0.0494355
0.291654
-0.0490013
0.276107
-0.0485111
0.261468
-0.0481209
0.247668
-0.0475852
0.234486
-0.0468097
0.221922
-0.0459013
0.210041
-0.0449269
0.1988
-0.0438648
0.188123
-0.0426864
0.178043
-0.0414472
0.168565
-0.0401356
0.159598
-0.0387271
0.151105
-0.0372301
0.143065
-0.0356468
0.135445
-0.0339739
0.128207
-0.0322219
0.121339
-0.0304399
0.114869
-0.0286009
0.108743
-0.0266829
0.102999
-0.0241546
0.0966536
-0.0209162
0.0891324
-0.015785
0.0772435
-0.00793028
0.053872
0.012831
-0.00275381
0.976368
-0.00956657
0.97297
-0.0153715
0.929507
-0.020492
0.884943
-0.0247549
0.84372
-0.0284232
0.804149
-0.031569
0.766522
-0.0344028
0.730624
-0.0371836
0.696429
-0.0396191
0.663349
-0.0416178
0.63173
-0.0434315
0.601633
-0.0452521
0.572879
-0.0469621
0.545278
-0.0485111
0.518842
-0.0498852
0.493396
-0.0510847
0.469011
-0.0521173
0.445613
-0.052985
0.423185
-0.0536986
0.401735
-0.0542819
0.381231
-0.0548097
0.361627
-0.0555549
0.343006
-0.0562605
0.325174
-0.056353
0.307873
-0.0559999
0.291301
-0.055632
0.275739
-0.0551204
0.260957
-0.0542626
0.24681
-0.0532891
0.233512
-0.0523407
0.220974
-0.0513281
0.209028
-0.0501744
0.197647
-0.0489234
0.186872
-0.0476272
0.176747
-0.0462195
0.167158
-0.0447081
0.158087
-0.0431179
0.149515
-0.0414425
0.141389
-0.0396793
0.133682
-0.0378378
0.126365
-0.0359343
0.119436
-0.033938
0.112872
-0.0320351
0.10684
-0.0297643
0.100729
-0.0269839
0.0938732
-0.0229437
0.0850921
-0.016175
0.0704749
-0.00618423
0.0438812
0.00664674
-0.00342688
0.979795
-0.00982631
0.979369
-0.0154818
0.935162
-0.0207682
0.890229
-0.0256322
0.848584
-0.0301694
0.808686
-0.0343733
0.770726
-0.0382625
0.734514
-0.0416206
0.699787
-0.044826
0.666554
-0.0479679
0.634872
-0.0508137
0.604479
-0.0532252
0.575291
-0.0553449
0.547397
-0.0572225
0.520719
-0.0588753
0.495049
-0.06031
0.470445
-0.0615218
0.446825
-0.0625143
0.424177
-0.0632846
0.402505
-0.0638026
0.381749
-0.0639975
0.361822
-0.0636372
0.342645
-0.062916
0.324453
-0.062401
0.307358
-0.0620608
0.290961
-0.0614505
0.275129
-0.0606576
0.260164
-0.0599585
0.246111
-0.0591611
0.232715
-0.0580893
0.219902
-0.0568254
0.207764
-0.055483
0.196304
-0.054063
0.185452
-0.0525149
0.175199
-0.0509005
0.165543
-0.0492235
0.15641
-0.047462
0.147753
-0.0456262
0.139553
-0.0437232
0.131779
-0.04176
0.124402
-0.0397315
0.117407
-0.0378002
0.110941
-0.0357002
0.10474
-0.0330206
0.098049
-0.029606
0.0904586
-0.0243294
0.0798156
-0.015672
0.0618175
-0.00391101
0.0321201
0.00273572
-0.00437661
0.984172
-0.0122469
0.987239
-0.0184928
0.941408
-0.0244118
0.896148
-0.0294562
0.853628
-0.0336812
0.812911
-0.0374344
0.774479
-0.0409187
0.737998
-0.0441995
0.703068
-0.0472216
0.669576
-0.04968
0.63733
-0.0520454
0.606844
-0.0543923
0.577638
-0.0566
0.549605
-0.0586224
0.522742
-0.0604372
0.496863
-0.0620334
0.472042
-0.0634192
0.448211
-0.0645938
0.425352
-0.0655616
0.403473
-0.066338
0.382525
-0.0669936
0.362478
-0.067778
0.34343
-0.0685488
0.325224
-0.0686988
0.307508
-0.0682186
0.290481
-0.0676453
0.274556
-0.0669865
0.259505
-0.0659307
0.245055
-0.0646307
0.231415
-0.0633233
0.218594
-0.0619817
0.206423
-0.0605022
0.194825
-0.0589092
0.183858
-0.0572834
0.173573
-0.0555627
0.163823
-0.0537455
0.154593
-0.0518634
0.145871
-0.0499149
0.137605
-0.0479037
0.129767
-0.0458265
0.122325
-0.0437887
0.115369
-0.0417594
0.108912
-0.0392033
0.102184
-0.0361711
0.0950168
-0.0317949
0.0860825
-0.0250066
0.0730272
-0.0148492
0.0516601
-0.00240339
0.0196743
0.000332332
-0.00468762
0.988859
-0.0115758
0.994127
-0.0177597
0.947592
-0.0234878
0.901876
-0.0287703
0.858911
-0.0339971
0.818138
-0.0388388
0.779321
-0.0432155
0.742375
-0.047195
0.707047
-0.0509644
0.673346
-0.0548304
0.641196
-0.058335
0.610349
-0.0614061
0.580709
-0.0641427
0.552342
-0.066598
0.525197
-0.0687928
0.499058
-0.0707225
0.473971
-0.0723797
0.449868
-0.0737619
0.426734
-0.0748593
0.40457
-0.0756401
0.383306
-0.0760415
0.362879
-0.0758311
0.343219
-0.075103
0.324496
-0.0744147
0.306819
-0.0739614
0.290027
-0.0732607
0.273855
-0.0722096
0.258454
-0.0711975
0.244043
-0.070166
0.230384
-0.0688634
0.217292
-0.0673078
0.204867
-0.0656601
0.193177
-0.0639666
0.182165
-0.062145
0.171751
-0.0602565
0.161934
-0.0583238
0.15266
-0.0563258
0.143873
-0.054273
0.135552
-0.0521664
0.127661
-0.0500884
0.120247
-0.0481176
0.113399
-0.0457841
0.106578
-0.0430557
0.0994558
-0.0394891
0.0914501
-0.0341159
0.0807093
-0.0251467
0.064058
-0.0118326
0.038346
-0.0014062
0.00924793
-0.00107387
-0.00469165
0.993551
-0.0127999
1.00224
-0.0195531
0.954345
-0.0257813
0.908105
-0.0310683
0.864198
-0.035659
0.822729
-0.0400215
0.783683
-0.0441111
0.746464
-0.0481394
0.711075
-0.0517385
0.676945
-0.0547934
0.644251
-0.0578164
0.613372
-0.0608248
0.583717
-0.0637002
0.555217
-0.0663809
0.527878
-0.0688208
0.501498
-0.0710011
0.476152
-0.0729297
0.451797
-0.074595
0.428399
-0.0759878
0.405963
-0.0771117
0.38443
-0.0780219
0.36379
-0.078935
0.344133
-0.0798567
0.325418
-0.0802312
0.307194
-0.0797858
0.289582
-0.0790571
0.273126
-0.0783099
0.257707
-0.077164
0.242897
-0.075627
0.228847
-0.0739993
0.215664
-0.0723739
0.203242
-0.0706462
0.191449
-0.0687903
0.180309
-0.0669178
0.169879
-0.0649839
0.16
-0.062974
0.15065
-0.0609176
0.141817
-0.0588137
0.133448
-0.0567114
0.125559
-0.0547535
0.118289
-0.0525623
0.111207
-0.0499819
0.103998
-0.0467957
0.0962696
-0.0422419
0.0868964
-0.0348292
0.0732966
-0.023181
0.0524098
-0.00746964
0.0226346
-0.000905449
0.00268374
-0.00197931
-0.00424556
0.997797
-0.0110507
1.00904
-0.0171768
0.960471
-0.0231714
0.914099
-0.0287017
0.869728
-0.03432
0.828347
-0.0395744
0.788938
-0.0445164
0.751406
-0.0489369
0.715496
-0.053416
0.681424
-0.0580527
0.648888
-0.0622985
0.617618
-0.0661809
0.5876
-0.069762
0.558798
-0.0730353
0.531151
-0.0760172
0.50448
-0.0786915
0.478826
-0.0810465
0.454152
-0.0830652
0.430418
-0.0847287
0.407627
-0.0860049
0.385706
-0.0868335
0.364618
-0.0870398
0.344339
-0.0865237
0.324901
-0.0857987
0.306469
-0.0853054
0.289089
-0.0846581
0.272479
-0.0835035
0.256552
-0.0822209
0.241615
-0.0809632
0.227589
-0.0794966
0.214197
-0.0777322
0.201477
-0.0758375
0.189555
-0.0739367
0.178408
-0.0719309
0.167873
-0.0698622
0.157932
-0.0677763
0.148564
-0.0656559
0.139696
-0.0635304
0.131323
-0.0615286
0.123557
-0.0594184
0.116179
-0.0569955
0.108785
-0.0541467
0.101149
-0.0502994
0.0924224
-0.0439454
0.0805424
-0.033174
0.0625252
-0.0168566
0.0360925
-0.00360639
0.00938439
-0.000126318
-0.000796339
-0.00210563
-0.00321855
1.00102
-0.010977
1.0168
-0.0173353
0.96683
-0.0234791
0.920243
-0.0288426
0.875092
-0.0337502
0.833255
-0.038365
0.793552
-0.0429686
0.75601
-0.0476958
0.720223
-0.0520233
0.685751
-0.0558926
0.652757
-0.059716
0.621441
-0.0635825
0.591466
-0.0673218
0.562537
-0.0708731
0.534702
-0.0742097
0.507817
-0.0772803
0.481897
-0.0800412
0.456913
-0.082484
0.432861
-0.0845908
0.409734
-0.0863491
0.387465
-0.087796
0.366065
-0.0890722
0.345615
-0.0903051
0.326134
-0.0911143
0.307278
-0.0909833
0.288958
-0.0902707
0.271766
-0.0894806
0.255762
-0.0883694
0.240503
-0.0867343
0.225954
-0.0848452
0.212308
-0.0829486
0.199581
-0.0810086
0.187615
-0.0789326
0.176332
-0.0768483
0.165789
-0.0747655
0.155849
-0.0726496
0.146448
-0.0705327
0.137579
-0.0684896
0.12928
-0.066448
0.121515
-0.0641574
0.113888
-0.0615288
0.106156
-0.0580528
0.0976729
-0.0523885
0.0867581
-0.0425547
0.0707085
-0.0270182
0.0469887
-0.00953312
0.0186074
-0.00196378
0.00181505
-4.10492e-05
-0.00271907
-0.00214668
-0.00230071
1.00332
-0.00796485
1.02246
-0.0134619
0.972327
-0.0189615
0.925743
-0.0243973
0.880528
-0.0300955
0.838953
-0.0356788
0.799136
-0.0409936
0.761325
-0.0460024
0.725232
-0.0512129
0.690962
-0.0566831
0.658228
-0.0618779
0.626636
-0.0667227
0.596311
-0.0713183
0.567133
-0.0756914
0.539075
-0.0797856
0.511911
-0.0835526
0.485664
-0.0869618
0.460322
-0.0899664
0.435865
-0.0925482
0.412315
-0.0946741
0.38959
-0.096299
0.36769
-0.0972846
0.346601
-0.0973486
0.326199
-0.0968589
0.306789
-0.0964839
0.288582
-0.0960592
0.271342
-0.0950287
0.254732
-0.0935834
0.239058
-0.0920845
0.224455
-0.0904595
0.210683
-0.0885398
0.197661
-0.0863998
0.185475
-0.0842678
0.1742
-0.0820929
0.163614
-0.079882
0.153638
-0.0777072
0.144273
-0.0755716
0.135444
-0.0735291
0.127237
-0.0713287
0.119315
-0.0687887
0.111348
-0.0654969
0.102864
-0.0603492
0.0925252
-0.0513874
0.0777963
-0.036657
0.0559781
-0.0168638
0.0271954
-0.00422981
0.00597348
-0.00054722
-0.00186754
0.000186162
-0.00345245
-0.00196052
-0.000492359
1.00381
-0.00640886
1.02838
-0.0119422
0.97786
-0.0173787
0.931179
-0.0223612
0.88551
-0.0272079
0.8438
-0.0320698
0.803998
-0.037194
0.766449
-0.0424551
0.730493
-0.0475186
0.696025
-0.0521935
0.662903
-0.0569711
0.631413
-0.0619195
0.601259
-0.0668017
0.572015
-0.0715286
0.543802
-0.076044
0.516426
-0.0803021
0.489922
-0.0842789
0.464299
-0.0879043
0.439491
-0.0911126
0.415524
-0.0938843
0.392362
-0.0962225
0.370028
-0.0982127
0.348591
-0.100047
0.328033
-0.101589
0.308331
-0.102175
0.289168
-0.10175
0.270917
-0.101003
0.253984
-0.100005
0.23806
-0.0984325
0.222883
-0.0963617
0.208612
-0.0941379
0.195437
-0.0919249
0.183262
-0.0895867
0.171862
-0.087214
0.161241
-0.0849355
0.151359
-0.0827314
0.142069
-0.0806472
0.133359
-0.0784939
0.125084
-0.0760122
0.116833
-0.0728605
0.108196
-0.0681662
0.0981697
-0.0599089
0.0842679
-0.0455105
0.063398
-0.0245477
0.0350153
-0.00772446
0.0103721
-0.00146464
-0.000286339
0.000216464
-0.00354864
0.000287297
-0.00352328
-0.00167322
0.0013033
1.0025
-0.00236575
1.03205
-0.00653579
0.98203
-0.0113455
0.935989
-0.016254
0.890419
-0.021894
0.84944
-0.0273874
0.809491
-0.0328051
0.771866
-0.0382985
0.735986
-0.044125
0.701852
-0.0504325
0.66921
-0.0566001
0.637581
-0.0625267
0.607186
-0.0683301
0.577819
-0.0739746
0.549447
-0.0794351
0.521887
-0.0846733
0.49516
-0.0895608
0.469186
-0.0940256
0.443956
-0.0979913
0.419489
-0.101417
0.395788
-0.10428
0.372891
-0.106453
0.350764
-0.107645
0.329224
-0.107822
0.308509
-0.107846
0.289192
-0.107823
0.270893
-0.107211
0.253373
-0.105826
0.236675
-0.104083
0.22114
-0.102212
0.206742
-0.100109
0.193334
-0.0976578
0.180811
-0.0951425
0.169347
-0.0926653
0.158764
-0.0902384
0.148932
-0.0879034
0.139734
-0.0856484
0.131104
-0.0831468
0.122582
-0.0800789
0.113765
-0.0756877
0.103805
-0.0680652
0.0905473
-0.0538979
0.0701006
-0.0321756
0.0416756
-0.0123803
0.0152201
-0.00349358
0.0014854
-0.000523029
-0.00325689
0.000249633
-0.00432131
0.000217155
-0.00349081
-0.00145607
0.00238498
1.00012
-0.000565286
1.035
-0.00428056
0.985745
-0.00845049
0.940159
-0.0125829
0.894551
-0.017025
0.853882
-0.0216477
0.814114
-0.0268888
0.777108
-0.0325534
0.741651
-0.0381626
0.707461
-0.0435555
0.674603
-0.04926
0.643285
-0.0553253
0.613251
-0.0614703
0.583964
-0.067588
0.555565
-0.0736117
0.52791
-0.0794124
0.500961
-0.0849458
0.47472
-0.0901606
0.44917
-0.0949662
0.424295
-0.0992834
0.400105
-0.103015
0.376623
-0.106174
0.353922
-0.108997
0.332048
-0.111639
0.31115
-0.113366
0.290919
-0.113736
0.271264
-0.113263
0.252899
-0.112436
0.235849
-0.111082
0.219786
-0.108995
0.204655
-0.106369
0.190708
-0.103655
0.178097
-0.100894
0.166586
-0.098072
0.155942
-0.0953136
0.146174
-0.0927098
0.137131
-0.0900455
0.12844
-0.0870268
0.119563
-0.0828516
0.10959
-0.075646
0.0965996
-0.0617521
0.0766533
-0.039378
0.0477266
-0.0175516
0.0198492
-0.00619182
0.00386025
-0.00226431
-0.00244212
-0.000964389
-0.00455681
-0.000391339
-0.00489436
-6.85305e-05
-0.00381361
-0.0015246
0.00560231
0.994518
0.00393719
1.03666
0.00181493
0.987868
-0.00146559
0.943439
-0.00553971
0.898625
-0.0103871
0.858729
-0.015476
0.819202
-0.020822
0.782454
-0.0263654
0.747194
-0.0325351
0.713631
-0.0394339
0.681502
-0.0464277
0.650279
-0.0533692
0.620193
-0.0603953
0.59099
-0.0674535
0.562623
-0.074465
0.534922
-0.0813397
0.507835
-0.08801
0.48139
-0.094329
0.455489
-0.100212
0.430178
-0.105522
0.405415
-0.11017
0.381272
-0.114068
0.35782
-0.117014
0.334994
-0.118568
0.312704
-0.119313
0.291664
-0.120003
0.271954
-0.120176
0.253072
-0.119284
0.234956
-0.117486
0.217989
-0.115273
0.202441
-0.112838
0.188273
-0.1099
0.175159
-0.106517
0.163202
-0.103405
0.15283
-0.100277
0.143046
-0.0970788
0.133932
-0.0937979
0.125159
-0.0895238
0.115289
-0.0824786
0.102545
-0.0689594
0.0830804
-0.0461278
0.0538217
-0.0225648
0.0241635
-0.00912512
0.0064096
-0.00410673
-0.00115814
-0.00236197
-0.00418688
-0.00153428
-0.0053845
-0.000967714
-0.00546092
-0.000403959
-0.00437737
-0.00192856
0.00586553
0.988652
0.0055041
1.03703
0.00403429
0.989337
0.00175856
0.945715
-0.00132538
0.901709
-0.00460993
0.862014
-0.00870792
0.8233
-0.0137217
0.787467
-0.0192546
0.752727
-0.0249646
0.719341
-0.0306904
0.687227
-0.0370111
0.6566
-0.0439474
0.627129
-0.051219
0.598261
-0.0587007
0.570105
-0.0662937
0.542515
-0.073864
0.515406
-0.0812891
0.488815
-0.0884427
0.462643
-0.0952214
0.436957
-0.10153
0.411724
-0.107298
0.38704
-0.112301
0.362823
-0.116604
0.339297
-0.120665
0.316765
-0.124067
0.295066
-0.125983
0.27387
-0.126353
0.253442
-0.125915
0.234517
-0.124911
0.216985
-0.123093
0.200623
-0.120212
0.185393
-0.116801
0.171748
-0.113107
0.159509
-0.109043
0.148765
-0.10511
0.139114
-0.100991
0.129813
-0.0958634
0.120032
-0.0883224
0.107748
-0.0750745
0.0892969
-0.0524293
0.0604353
-0.0269682
0.0283606
-0.0112176
0.00841291
-0.00460054
-0.000207502
-0.00215284
-0.00360583
-0.00119929
-0.00514043
-0.000845511
-0.00573828
-0.000684613
-0.00562182
-0.000399441
-0.00466254
-0.002328
0.010554
0.978098
0.0109361
1.03664
0.0107377
0.989536
0.00854756
0.947905
0.00581645
0.90444
0.00210978
0.86572
-0.00226924
0.827679
-0.0068908
0.792089
-0.0119651
0.757802
-0.0179461
0.725322
-0.024956
0.694237
-0.0323147
0.663959
-0.0398674
0.634682
-0.0478035
0.606198
-0.0560492
0.57835
-0.0645178
0.550983
-0.0730993
0.523987
-0.081663
0.497379
-0.0900792
0.471059
-0.0981993
0.445077
-0.10588
0.419405
-0.112879
0.394039
-0.119099
0.369042
-0.124336
0.344535
-0.128207
0.320635
-0.130521
0.29738
-0.132256
0.275605
-0.133528
0.254714
-0.133816
0.234806
-0.132648
0.215817
-0.130262
0.198237
-0.12749
0.182621
-0.124093
0.16835
-0.119853
0.155269
-0.115001
0.143914
-0.109522
0.133635
-0.103069
0.12336
-0.0943819
0.111345
-0.0804564
0.0938228
-0.0574383
0.0662789
-0.0302417
0.0332387
-0.0111206
0.00923946
-0.00205278
-0.000654898
0.00210203
-0.00436232
0.00361193
-0.00511573
0.00361935
-0.00514786
0.00271829
-0.00483722
0.0014293
-0.00433283
0.000357708
-0.00359096
-0.00197029
0.00888457
0.969214
0.0104668
1.03506
0.0109878
0.989015
0.0106517
0.948241
0.00951045
0.905581
0.00727963
0.867951
0.00427794
0.830681
0.000231674
0.796135
-0.00472411
0.762757
-0.0100586
0.730656
-0.0155488
0.699728
-0.0218232
0.670233
-0.0290843
0.641943
-0.0370093
0.614122
-0.0454757
0.586817
-0.0543804
0.559888
-0.0635693
0.533176
-0.0728907
0.5067
-0.0821652
0.480334
-0.0912294
0.454141
-0.0999229
0.428098
-0.108083
0.402199
-0.11559
0.376549
-0.122267
0.351212
-0.128237
0.326605
-0.13389
0.303033
-0.137961
0.279676
-0.140189
0.256942
-0.140815
0.235432
-0.140412
0.215414
-0.13933
0.197155
-0.136671
0.179962
-0.132359
0.164038
-0.127404
0.150313
-0.121232
0.137742
-0.113512
0.125915
-0.103194
0.113042
-0.0870839
0.0952345
-0.0613245
0.0680634
-0.0310837
0.0360381
-0.00710437
0.00925935
0.00578625
-0.00365116
0.0115829
-0.00645151
0.0134772
-0.0062567
0.0130656
-0.00470409
0.0111768
-0.00325908
0.00830043
-0.00196082
0.0049554
-0.000987804
0.0018054
-0.000440955
-0.000164891
0.0137676
0.955446
0.0160713
1.03276
0.0174243
0.987662
0.0162944
0.949371
0.0150877
0.906788
0.0127788
0.87026
0.00996798
0.833492
0.0065387
0.799564
0.00243935
0.766857
-0.00280649
0.735902
-0.00934732
0.706268
-0.0163941
0.67728
-0.023854
0.649403
-0.0320269
0.622295
-0.0408844
0.595674
-0.0503364
0.56934
-0.0602742
0.543114
-0.0705415
0.516967
-0.0809907
0.490783
-0.091436
0.464586
-0.101634
0.438296
-0.111396
0.411961
-0.120482
0.385635
-0.128659
0.359389
-0.135572
0.333518
-0.140617
0.308078
-0.144221
0.283281
-0.147003
0.259723
-0.148934
0.237363
-0.149603
0.216083
-0.147926
0.195478
-0.144474
0.176511
-0.140773
0.160337
-0.135228
0.144769
-0.12698
0.129493
-0.11457
0.113505
-0.0953785
0.09385
-0.0647364
0.0645924
-0.0306848
0.0340119
-0.00251173
0.00786502
0.0136994
-0.0069518
0.0198344
-0.00978618
0.0211611
-0.00777818
0.0200297
-0.0051253
0.0177109
-0.00238531
0.0145063
-5.44141e-05
0.0105615
0.00198397
0.00641384
0.00315984
0.00246119
0.0035117
0.0022963
0.0106149
0.944831
0.0137068
1.02967
0.0158387
0.98553
0.016991
0.948219
0.0172753
0.906504
0.0165799
0.870955
0.0149919
0.83508
0.0122417
0.802315
0.00869099
0.770407
0.00464948
0.739943
0.000189601
0.710728
-0.00549468
0.682964
-0.0123511
0.656259
-0.0200659
0.63001
-0.0287128
0.604321
-0.0382132
0.578841
-0.0484333
0.553334
-0.059224
0.527758
-0.0703543
0.501913
-0.0815968
0.475829
-0.0927653
0.449464
-0.103638
0.422834
-0.113957
0.395954
-0.123584
0.369016
-0.13245
0.342384
-0.140606
0.316233
-0.14773
0.290405
-0.152861
0.264854
-0.155913
0.240415
-0.156709
0.216879
-0.156035
0.194804
-0.155222
0.175698
-0.150954
0.156069
-0.142002
0.135817
-0.127732
0.115222
-0.104841
0.0906148
-0.0698748
0.0588834
-0.0328698
0.0275874
-0.00505124
0.00619332
0.0121348
-0.00932099
0.0189632
-0.0137802
0.021254
-0.0120769
0.0210144
-0.00753864
0.0191509
-0.00326176
0.0164726
0.000292957
0.012998
0.00342025
0.00935057
0.00563136
0.00552826
0.00698215
0.00200514
0.00703482
0.00430143
0.014742
0.930089
0.0182021
1.02621
0.0202065
0.983525
0.0205318
0.947894
0.0207925
0.906243
0.0199924
0.871756
0.0187306
0.836342
0.0169185
0.804127
0.0143222
0.773004
0.010527
0.743739
0.00538311
0.715872
-0.000466667
0.688814
-0.00712682
0.662919
-0.0147248
0.637608
-0.0231901
0.612786
-0.0327258
0.588376
-0.0432385
0.563847
-0.054565
0.539085
-0.0665451
0.513893
-0.0789761
0.48826
-0.0915584
0.462046
-0.104007
0.435282
-0.116155
0.408102
-0.12774
0.380601
-0.138209
0.352853
-0.14687
0.324895
-0.153669
0.297204
-0.1591
0.270284
-0.162786
0.244101
-0.16592
0.220013
-0.168112
0.196997
-0.164418
0.172004
-0.15519
0.14684
-0.1398
0.120427
-0.11211
0.0875328
-0.0773666
0.0558711
-0.0449727
0.0264895
-0.0242336
0.00684829
-0.0127517
-0.00528862
-0.00901105
-0.0130616
-0.00574145
-0.0170498
-0.00197799
-0.0158404
0.00123998
-0.0107566
0.00285046
-0.00487224
0.00289974
0.000243685
0.00271239
0.00360761
0.00192056
0.00642318
0.000825045
0.00807767
-2.31156e-06
0.00786217
0.00429912
0.00935033
0.920739
0.0146811
1.02087
0.0169435
0.981263
0.0194134
0.945424
0.0208021
0.904854
0.0215322
0.871026
0.0213953
0.836479
0.0203371
0.805185
0.018487
0.774854
0.0161803
0.746045
0.0133861
0.718666
0.00933206
0.692868
0.00385992
0.668391
-0.00286821
0.644336
-0.0107272
0.620645
-0.0197938
0.597443
-0.030082
0.574135
-0.0415006
0.550503
-0.0538044
0.526197
-0.0666703
0.501126
-0.0799297
0.475306
-0.0933383
0.448691
-0.106693
0.421456
-0.119613
0.393522
-0.131758
0.364998
-0.143138
0.336275
-0.153711
0.307776
-0.162603
0.279176
-0.169703
0.251201
-0.17429
0.2246
-0.174024
0.196731
-0.166613
0.164593
-0.151581
0.131809
-0.124491
0.0933375
-0.0979272
0.0609687
-0.0760018
0.0339457
-0.0633471
0.0138348
-0.0562924
-0.000206391
-0.049292
-0.012289
-0.0415834
-0.0207702
-0.0333727
-0.0252605
-0.0243735
-0.0248396
-0.0160451
-0.019085
-0.00968573
-0.0112316
-0.00598245
-0.0034596
-0.00435195
0.00197711
-0.00335011
0.00542134
-0.00231614
0.0070437
-0.00113325
0.00667929
0.00316587
0.0129405
0.907798
0.0194979
1.01432
0.0193836
0.981377
0.020921
0.943886
0.0223492
0.903426
0.0228029
0.870572
0.0228967
0.836385
0.0227387
0.805343
0.0218185
0.775774
0.0199084
0.747955
0.0165736
0.722001
0.0125448
0.696897
0.0077433
0.673193
0.00178139
0.650298
-0.00550956
0.627936
-0.0140871
0.60602
-0.0241138
0.584162
-0.0355791
0.561969
-0.0482939
0.538912
-0.0619855
0.514817
-0.0763517
0.489672
-0.091242
0.463581
-0.106416
0.43663
-0.121323
0.408428
-0.135585
0.379261
-0.148598
0.349288
-0.159272
0.318449
-0.168675
0.28858
-0.175848
0.258374
-0.177313
0.226065
-0.17413
0.193548
-0.160744
0.151206
-0.139076
0.110141
-0.118382
0.0726442
-0.106465
0.0490509
-0.0994646
0.0269457
-0.0938608
0.00823098
-0.085666
-0.00840114
-0.0774239
-0.0205312
-0.0682312
-0.029963
-0.0585556
-0.034936
-0.0473348
-0.0360605