/*--------------------------------*- C++ -*----------------------------------*\
| =========                 |                                                 |
| \\      /  F ield         | OpenFOAM: The Open Source CFD Toolbox           |
|  \\    /   O peration     | Version:  v1912                                 |
|   \\  /    A nd           | Website:  www.openfoam.com                      |
|    \\/     M anipulation  |                                                 |
\*---------------------------------------------------------------------------*/
FoamFile
{
    version     2.0;
    format      ascii;
    class       volVectorField;
    location    "0.22";
    object      U;
}
// * * * * * * * * * * * * * * * * * * * * * * * * * * * * * * * * * * * * * //

dimensions      [0 1 -1 0 0 0 0];


internalField   nonuniform List<vector> 
6600
(
(39.8467 -0.0362936 0)
(40.1063 -0.0362147 7.82998e-21)
(40.1798 0.0695007 5.51461e-19)
(40.2345 0.185023 0)
(40.2912 0.319696 6.66063e-19)
(40.3601 0.486398 2.19036e-20)
(40.4452 0.662541 -2.42348e-20)
(40.5125 0.864611 -2.75555e-20)
(40.5567 1.09518 5.88884e-19)
(40.579 1.34589 -1.15287e-19)
(40.6182 1.57685 0)
(40.6325 1.8332 -8.1203e-19)
(40.6159 2.10912 0)
(40.6139 2.3836 -8.99901e-19)
(40.5905 2.67546 -1.40384e-18)
(40.5471 2.97743 -7.89253e-19)
(40.4908 3.29338 0)
(40.4107 3.62446 0)
(40.3157 3.971 1.50242e-18)
(40.2038 4.33407 -1.3805e-18)
(40.0828 4.7175 -2.15708e-19)
(39.9543 5.11892 -8.65499e-19)
(39.8039 5.53375 -1.66965e-18)
(39.5909 5.91419 3.94036e-19)
(39.4336 6.35064 1.50137e-18)
(39.2754 6.8421 0)
(39.0186 7.34979 3.88642e-18)
(38.7204 7.87673 0)
(38.4584 8.47367 -2.06563e-18)
(38.1948 9.10287 -1.38472e-18)
(37.9007 9.73951 -3.39499e-19)
(37.6064 10.4145 -1.80996e-18)
(37.3244 11.1362 -7.60014e-19)
(37.007 11.9007 1.60176e-18)
(36.6826 12.7015 3.4395e-19)
(36.3925 13.5669 1.96748e-18)
(36.103 14.501 3.79652e-18)
(35.8197 15.4865 3.82285e-18)
(35.5703 16.5417 -2.83343e-18)
(35.3344 17.6666 3.04486e-18)
(35.128 18.8635 1.62651e-18)
(34.9572 20.1401 0)
(34.8301 21.4944 -4.61595e-19)
(34.7511 22.9498 1.11652e-18)
(34.7051 24.4595 0)
(34.7333 26.1157 -5.01775e-19)
(34.7984 27.7206 -1.45927e-18)
(35.1171 29.7855 0)
(33.5326 30.3539 0)
(23.7632 22.9036 -1.48902e-18)
(39.7464 -0.0497109 4.56904e-19)
(40.1999 -0.0525549 -4.39246e-19)
(40.2746 0.116916 0)
(40.348 0.274366 -8.08529e-21)
(40.4029 0.453594 5.30295e-19)
(40.4601 0.658937 1.91373e-20)
(40.5114 0.853177 -4.31553e-23)
(40.5732 1.04769 -2.35676e-20)
(40.625 1.25149 0)
(40.6808 1.45647 -9.38755e-19)
(40.7067 1.71261 -3.45121e-20)
(40.7512 1.95803 5.92903e-19)
(40.7903 2.21902 6.47561e-19)
(40.8059 2.50115 5.69194e-19)
(40.8086 2.80086 -4.60415e-21)
(40.7887 3.11323 7.77531e-20)
(40.7532 3.4415 -7.05688e-19)
(40.6961 3.78532 0)
(40.6205 4.14505 0)
(40.5262 4.52116 1.43045e-18)
(40.41 4.91688 2.07297e-19)
(40.2667 5.33196 -1.1156e-18)
(40.0962 5.76896 -1.059e-18)
(39.9747 6.31605 -1.26175e-18)
(39.7714 6.83476 -1.08031e-18)
(39.4959 7.31869 -4.63516e-19)
(39.2698 7.85659 -6.31216e-19)
(39.0799 8.43915 -6.43017e-19)
(38.8345 8.99974 2.05048e-18)
(38.5839 9.59283 3.0433e-19)
(38.35 10.2584 -2.72686e-18)
(38.0979 10.955 2.54835e-18)
(37.8221 11.6809 1.86876e-18)
(37.5504 12.4446 -2.37577e-18)
(37.2964 13.2603 3.58111e-19)
(37.0401 14.1277 -2.01222e-18)
(36.8163 15.0374 1.67006e-18)
(36.6256 16.014 -1.35725e-18)
(36.4424 17.0398 -9.5153e-19)
(36.3037 18.1309 -1.06989e-18)
(36.197 19.2807 0)
(36.116 20.4943 0)
(36.0863 21.7616 -1.00532e-19)
(36.1492 23.1278 4.85908e-20)
(36.3397 24.5757 -7.8308e-19)
(36.5895 26.1391 5.18106e-19)
(36.8743 27.6618 2.87902e-18)
(37.2762 29.4609 0)
(35.531 29.5839 -3.85253e-18)
(24.4339 21.6013 1.66564e-18)
(39.6878 -0.00327215 -6.09392e-20)
(40.3386 -0.045128 4.47602e-19)
(40.3812 0.137536 3.95185e-19)
(40.4579 0.295625 -4.11103e-22)
(40.5356 0.477181 -1.21147e-19)
(40.6236 0.679157 1.63588e-20)
(40.7204 0.899602 0)
(40.8005 1.1417 0)
(40.8566 1.40495 0)
(40.8861 1.68025 4.68585e-19)
(40.9362 1.93248 -2.81248e-20)
(40.9535 2.22855 -5.96858e-19)
(40.9528 2.53491 -3.84827e-19)
(40.9591 2.84091 7.00657e-19)
(40.9492 3.16379 3.96629e-19)
(40.9191 3.49887 -7.01251e-20)
(40.8753 3.84927 1.36945e-18)
(40.8105 4.21584 -7.02371e-19)
(40.7314 4.59918 -8.51155e-19)
(40.6378 5.00049 0)
(40.5373 5.42253 -6.22302e-19)
(40.432 5.86165 8.95085e-19)
(40.3087 6.3116 1.07167e-18)
(40.1196 6.71825 1.27765e-18)
(39.9989 7.19481 1.15578e-18)
(39.8843 7.72975 -1.38685e-19)
(39.6681 8.26984 -2.36909e-19)
(39.4115 8.82488 -7.40569e-19)
(39.2016 9.45493 -3.23321e-19)
(38.996 10.1121 1.28041e-18)
(38.7642 10.7685 4.28678e-19)
(38.5432 11.4615 0)
(38.3466 12.196 -2.18998e-18)
(38.1234 12.9668 5.98191e-19)
(37.9035 13.7641 1.31235e-18)
(37.7334 14.6128 1.87688e-18)
(37.576 15.5192 -1.02628e-18)
(37.4383 16.462 -7.5694e-19)
(37.3553 17.4617 3.89349e-19)
(37.3028 18.5118 0)
(37.302 19.6142 -1.13839e-19)
(37.3629 20.7722 0)
(37.4969 21.9847 0)
(37.7067 23.2662 9.17546e-19)
(37.9679 24.5681 6.17559e-19)
(38.321 25.9772 -1.74035e-18)
(38.7717 27.447 -1.83306e-18)
(39.1615 28.836 0)
(37.1138 28.4966 -2.38722e-18)
(24.6271 19.9226 2.62617e-18)
(39.6457 0.00902041 -3.98285e-19)
(40.5023 -0.00777721 2.5328e-21)
(40.5513 0.234271 -4.05142e-19)
(40.6339 0.404944 -2.94285e-19)
(40.6956 0.63714 -4.21031e-19)
(40.7597 0.862216 -1.5481e-19)
(40.8169 1.07846 -1.3414e-20)
(40.8937 1.30939 0)
(40.9602 1.53618 2.05154e-19)
(41.0164 1.78546 2.52513e-19)
(41.0517 2.06822 -2.08561e-20)
(41.1101 2.33431 -2.59823e-20)
(41.1527 2.62747 -2.49154e-19)
(41.1775 2.93834 -1.33373e-19)
(41.1913 3.26639 -6.82687e-20)
(41.1807 3.60905 -5.54287e-20)
(41.1567 3.9676 -8.45721e-20)
(41.1134 4.34299 7.90078e-19)
(41.053 4.73568 1.09673e-18)
(40.9767 5.14594 0)
(40.8812 5.57614 1.35141e-19)
(40.7603 6.02499 0)
(40.6122 6.4901 0)
(40.523 7.07115 -2.54328e-19)
(40.3503 7.62253 7.97632e-19)
(40.1068 8.1384 9.40718e-19)
(39.9237 8.7068 -1.97166e-19)
(39.7876 9.31902 1.04649e-18)
(39.5978 9.90385 0)
(39.4083 10.5159 0)
(39.2473 11.1976 5.97107e-19)
(39.0761 11.9063 0)
(38.8869 12.6388 5.66881e-19)
(38.7159 13.4004 9.02868e-19)
(38.5785 14.2074 -1.633e-18)
(38.4478 15.0538 -1.63009e-18)
(38.3632 15.9258 1.20015e-18)
(38.3293 16.8518 -4.47243e-19)
(38.3167 17.8093 3.00065e-19)
(38.3668 18.8114 3.44951e-19)
(38.4673 19.8485 -3.35626e-19)
(38.6118 20.9234 0)
(38.8247 22.0224 0)
(39.1429 23.1789 -7.01653e-19)
(39.6143 24.3869 -1.67632e-18)
(40.1554 25.673 -5.71446e-19)
(40.7361 26.9904 -3.25866e-18)
(41.0109 28.0728 3.59808e-18)
(38.3968 27.1736 5.2914e-18)
(24.3244 17.9433 0)
(39.6437 0.0541327 -9.63311e-22)
(40.6779 0.011482 1.86605e-19)
(40.7202 0.294249 1.95371e-19)
(40.8157 0.436318 3.05406e-19)
(40.8926 0.654911 0)
(40.9808 0.887769 7.8783e-20)
(41.0817 1.14327 0)
(41.1699 1.40792 -8.67019e-21)
(41.2282 1.71634 -2.89861e-19)
(41.277 2.00489 -2.46262e-19)
(41.3283 2.29096 1.25287e-20)
(41.3508 2.61843 1.62396e-20)
(41.3631 2.95018 -1.80691e-20)
(41.3754 3.28521 -2.37879e-19)
(41.3747 3.63746 -4.86938e-19)
(41.3549 4.00257 3.44255e-20)
(41.3227 4.38299 -7.13295e-19)
(41.2715 4.78085 5.99154e-20)
(41.207 5.19573 -3.25901e-19)
(41.1315 5.62887 -1.73896e-19)
(41.0519 6.08185 5.99331e-19)
(40.9706 6.55131 0)
(40.8766 7.02856 0)
(40.712 7.45289 -3.10869e-19)
(40.6216 7.94901 -5.20658e-19)
(40.5522 8.51204 5.7397e-19)
(40.3854 9.0782 -1.51794e-19)
(40.1751 9.64968 0)
(40.0229 10.2979 2.05068e-19)
(39.886 10.9744 -2.28417e-19)
(39.7262 11.6403 -6.06873e-19)
(39.5858 12.3342 -6.79358e-19)
(39.4834 13.0628 2.94565e-19)
(39.3666 13.8218 -2.66543e-19)
(39.2621 14.5967 2.96592e-19)
(39.2225 15.4088 0)
(39.2092 16.2658 -3.13637e-19)
(39.2242 17.1404 1.70742e-19)
(39.3103 18.0537 -4.23425e-20)
(39.439 18.9949 -1.42456e-19)
(39.6294 19.963 4.63837e-19)
(39.895 20.956 0)
(40.249 21.9762 0)
(40.6929 23.0307 -1.5993e-18)
(41.1781 24.0633 3.49752e-18)
(41.7409 25.1592 9.54822e-19)
(42.3507 26.3825 2.01566e-18)
(42.402 27.0009 -4.35106e-18)
(39.0403 25.553 3.86813e-19)
(23.3598 15.6555 -7.10986e-18)
(39.6707 0.0758426 1.47641e-19)
(40.8918 0.0502493 -1.11629e-19)
(40.9405 0.41473 -1.99731e-19)
(41.0315 0.565612 1.67142e-20)
(41.0887 0.84137 0)
(41.1709 1.08069 8.39064e-20)
(41.2292 1.31646 -1.23506e-21)
(41.3051 1.58065 2.89503e-20)
(41.3844 1.82446 9.3754e-20)
(41.4376 2.11621 0)
(41.4876 2.41966 3.45467e-21)
(41.5562 2.70775 -2.13075e-20)
(41.6051 3.02696 3.65491e-21)
(41.6419 3.36294 7.75404e-21)
(41.6663 3.71722 1.79518e-19)
(41.6689 4.08716 -1.52885e-20)
(41.6596 4.47317 2.60736e-19)
(41.6324 4.87666 -2.81123e-20)
(41.5908 5.2974 4.32419e-20)
(41.5366 5.73641 7.48997e-20)
(41.4657 6.19611 1.3e-19)
(41.3713 6.67575 -4.43396e-21)
(41.2518 7.1726 1.01244e-19)
(41.2025 7.78642 4.23782e-19)
(41.0699 8.36621 0)
(40.8581 8.90172 -4.42981e-19)
(40.7143 9.48495 1.02225e-19)
(40.637 10.115 1.07475e-21)
(40.5098 10.7116 -8.49432e-20)
(40.3843 11.3237 1.40801e-19)
(40.3 12.0011 -1.70138e-19)
(40.2156 12.7013 4.21494e-19)
(40.1156 13.4165 0)
(40.0443 14.1481 0)
(40.0257 14.9166 0)
(40.0211 15.7132 0)
(40.0697 16.5146 4.09587e-19)
(40.1845 17.3543 -7.56775e-19)
(40.3266 18.2048 0)
(40.5387 19.0762 3.80495e-20)
(40.809 19.9564 -2.19935e-19)
(41.1276 20.8472 -2.22625e-18)
(41.5144 21.7319 1.22423e-18)
(41.9932 22.629 0)
(42.629 23.5532 1.3963e-18)
(43.3282 24.5549 -5.02666e-18)
(43.9019 25.4932 3.67763e-18)
(43.6251 25.8377 2.85487e-18)
(39.1742 23.7078 1.04833e-17)
(21.6766 13.1093 -7.82884e-18)
(39.734 0.100563 -1.47406e-19)
(41.1217 0.0477987 -2.47092e-20)
(41.1802 0.469024 -2.62208e-22)
(41.294 0.57395 -1.73492e-20)
(41.3621 0.857386 -8.48029e-20)
(41.4499 1.12225 1.92385e-21)
(41.5642 1.40507 -1.37087e-19)
(41.6541 1.6897 -2.90662e-20)
(41.7174 2.01535 -1.88318e-19)
(41.771 2.32268 3.72749e-21)
(41.8375 2.64563 1.17214e-19)
(41.8708 3.00743 -1.10839e-19)
(41.8992 3.36756 -1.06769e-20)
(41.9236 3.73441 0)
(41.9404 4.11639 0)
(41.9376 4.51273 -2.24776e-21)
(41.9229 4.92456 -3.37173e-20)
(41.8921 5.35355 0)
(41.8487 5.79852 3.42003e-21)
(41.7967 6.26117 -1.27886e-19)
(41.7417 6.74126 -1.56089e-19)
(41.6869 7.23415 -2.48304e-20)
(41.6239 7.73084 0)
(41.4866 8.16889 -1.70363e-19)
(41.4233 8.67239 -2.97548e-20)
(41.4012 9.25044 3.31923e-20)
(41.2929 9.83262 0)
(41.1312 10.4042 0)
(41.0344 11.0478 -2.20485e-19)
(40.9679 11.7244 7.84876e-20)
(40.8802 12.381 1.86304e-19)
(40.8149 13.0509 -1.5299e-20)
(40.8006 13.7441 5.90089e-20)
(40.7867 14.4607 -1.91962e-19)
(40.7875 15.1804 5.47516e-19)
(40.8628 15.9184 3.09976e-19)
(40.9762 16.6888 -3.0657e-19)
(41.1154 17.4559 5.10275e-19)
(41.3323 18.241 -1.17071e-18)
(41.594 19.0307 5.14213e-20)
(41.9126 19.8232 -2.63779e-19)
(42.305 20.612 1.15009e-18)
(42.7865 21.402 1.89894e-18)
(43.3657 22.2017 -2.10944e-18)
(43.9561 22.9545 1.3788e-18)
(44.6164 23.8257 0)
(44.9467 24.4182 2.24264e-18)
(44.1798 24.4202 3.48827e-18)
(38.4004 21.564 -7.1187e-18)
(19.0756 10.3302 -2.16466e-18)
(39.8243 0.126098 -9.22968e-20)
(41.3854 0.0891012 -4.98049e-20)
(41.4409 0.578065 -1.07835e-21)
(41.5348 0.717753 1.557e-19)
(41.6105 1.03509 2.73465e-19)
(41.6887 1.29451 -2.29288e-19)
(41.7445 1.56273 4.05179e-19)
(41.8353 1.83978 -1.53687e-19)
(41.9262 2.11856 1.85722e-19)
(41.9964 2.43064 2.10769e-19)
(42.05 2.75337 -3.66235e-19)
(42.1339 3.06303 1.52447e-19)
(42.1948 3.40956 2.84211e-19)
(42.2479 3.772 -3.90779e-22)
(42.2912 4.15299 1.57934e-19)
(42.3143 4.55045 -1.89811e-19)
(42.3276 4.96377 7.56905e-20)
(42.3241 5.39481 0)
(42.3079 5.84174 0)
(42.2816 6.30674 0)
(42.2406 6.7919 1.84714e-20)
(42.177 7.29586 -6.92231e-21)
(42.09 7.81932 1.45973e-19)
(42.0843 8.45813 2.16571e-20)
(42.001 9.06407 0)
(41.8219 9.61115 0)
(41.7102 10.1917 -1.38261e-19)
(41.6904 10.8248 4.39634e-20)
(41.6289 11.4205 -9.84258e-20)
(41.5623 12.0104 1.15441e-19)
(41.5459 12.6565 2.58174e-20)
(41.5426 13.3222 3.24226e-19)
(41.5215 13.9926 -1.21214e-19)
(41.5307 14.6623 5.40472e-19)
(41.6109 15.3568 -2.99929e-19)
(41.707 16.0694 -1.17648e-19)
(41.8503 16.7642 1.44458e-19)
(42.0692 17.4801 5.20527e-19)
(42.3125 18.1878 4.86022e-19)
(42.6197 18.8946 8.75677e-19)
(42.9837 19.5872 -2.40886e-19)
(43.3917 20.2699 1.74558e-18)
(43.8596 20.9261 -1.94157e-18)
(44.3833 21.5526 0)
(45.061 22.2101 0)
(45.7535 22.9589 0)
(45.9043 23.2333 0)
(44.4025 22.8643 0)
(36.8559 19.1921 -4.02849e-18)
(15.5572 7.40561 6.62033e-18)
(39.9383 0.157066 9.32963e-20)
(41.6788 0.0778886 0)
(41.7539 0.596829 0)
(41.8663 0.69982 -1.59376e-19)
(41.9353 1.05261 -1.8427e-19)
(42.0357 1.31433 2.33718e-19)
(42.155 1.62297 -2.74861e-19)
(42.2515 1.95072 1.54176e-19)
(42.3209 2.27739 -2.7068e-19)
(42.3944 2.61629 -2.17958e-19)
(42.4854 2.97383 2.27982e-19)
(42.5408 3.36403 -3.78093e-19)
(42.594 3.75059 -5.10523e-19)
(42.64 4.14899 0)
(42.6811 4.56091 -1.74226e-19)
(42.7045 4.98794 2.22021e-19)
(42.7147 5.43171 -3.32329e-22)
(42.711 5.89079 3.96224e-19)
(42.6955 6.36452 -4.84313e-19)
(42.6717 6.85451 0)
(42.6443 7.35934 0)
(42.6163 7.87181 -3.06916e-19)
(42.5815 8.3797 1.78316e-19)
(42.4767 8.83181 3.89661e-19)
(42.4304 9.32788 8.1401e-20)
(42.4516 9.90678 -3.46693e-19)
(42.4091 10.4958 4.37972e-19)
(42.2954 11.0514 -4.88236e-19)
(42.2423 11.666 2.34355e-19)
(42.2377 12.3227 -1.96781e-19)
(42.213 12.9508 1.16014e-19)
(42.2033 13.5718 -2.96337e-19)
(42.2535 14.2014 3.04398e-19)
(42.3215 14.8476 -4.1081e-19)
(42.397 15.485 0)
(42.5448 16.1176 -4.67136e-19)
(42.7404 16.7716 -4.39614e-19)
(42.9487 17.4048 1.42884e-19)
(43.2302 18.0365 1.13613e-18)
(43.5527 18.6527 -1.10494e-18)
(43.9174 19.255 -2.12519e-19)
(44.3466 19.8328 -2.01723e-18)
(44.8527 20.3891 4.77338e-18)
(45.472 20.9527 3.38596e-19)
(46.1132 21.5245 3.90495e-19)
(46.4968 21.914 -1.94016e-18)
(46.2335 21.9438 0)
(43.6586 21.0127 3.57495e-18)
(34.0118 16.4203 -1.91914e-18)
(10.8108 4.26918 0)
(40.0789 0.190643 -1.40536e-21)
(41.9854 0.127744 -1.73122e-22)
(42.0534 0.701554 3.04794e-19)
(42.1536 0.826981 0)
(42.2232 1.20137 5.74553e-21)
(42.3061 1.47251 2.38574e-19)
(42.384 1.75044 0)
(42.4853 2.05307 -3.25646e-19)
(42.6046 2.36149 2.91784e-19)
(42.6866 2.70153 -2.26188e-20)
(42.7511 3.03191 -4.88898e-19)
(42.8534 3.36359 9.10212e-20)
(42.9391 3.73269 2.59051e-19)
(43.0159 4.12059 0)
(43.088 4.52591 0)
(43.1377 4.95141 0)
(43.1799 5.39077 4.67305e-19)
(43.2071 5.84793 -3.99098e-19)
(43.2207 6.32067 8.45071e-19)
(43.2258 6.80931 -7.7326e-20)
(43.2176 7.3165 1.73274e-19)
(43.1874 7.83988 2.11821e-19)
(43.1372 8.38574 -8.89301e-19)
(43.1677 9.03344 -7.00566e-19)
(43.1367 9.65977 0)
(42.9896 10.2117 3.41943e-19)
(42.8947 10.7726 -8.64397e-19)
(42.9188 11.3928 4.72386e-19)
(42.917 11.9781 -2.69264e-19)
(42.8948 12.5282 1.55524e-19)
(42.9226 13.1179 -2.05042e-19)
(42.9788 13.7255 7.87851e-19)
(43.0133 14.3308 -8.09706e-19)
(43.0664 14.9176 1.18137e-18)
(43.2043 15.5139 4.84148e-19)
(43.3591 16.1228 -1.14564e-18)
(43.5408 16.6936 1.45446e-18)
(43.802 17.2697 -9.45e-19)
(44.0809 17.8234 3.0764e-20)
(44.4079 18.3604 0)
(44.7863 18.8658 1.61999e-18)
(45.2029 19.348 1.12336e-18)
(45.679 19.8018 1.31529e-19)
(46.169 20.2121 -3.17993e-18)
(46.7885 20.6628 -1.05608e-19)
(46.959 20.7822 -2.25808e-18)
(46.2912 20.5316 0)
(42.2863 18.8716 3.64802e-18)
(30.1912 13.2373 -6.14142e-18)
(6.1179 1.39679 0)
(40.2784 0.230361 0)
(42.3346 0.118089 0)
(42.4227 0.689914 -1.04673e-19)
(42.5237 0.784616 1.30896e-20)
(42.5971 1.18067 -2.83946e-19)
(42.7267 1.45459 -2.45459e-19)
(42.8481 1.78644 0)
(42.9543 2.1156 3.26392e-19)
(43.0511 2.47803 -4.86254e-19)
(43.1481 2.82184 0)
(43.2763 3.21172 8.09947e-19)
(43.3654 3.6279 -8.64633e-20)
(43.4505 4.04074 4.62539e-20)
(43.5302 4.46601 -5.15629e-20)
(43.6031 4.90818 0)
(43.6581 5.36449 0)
(43.7009 5.83738 -2.10176e-19)
(43.7281 6.32637 -3.57238e-19)
(43.743 6.82802 1.20329e-19)
(43.7492 7.34318 -5.57818e-20)
(43.7486 7.87032 1.2548e-19)
(43.7439 8.40067 -7.05907e-20)
(43.7359 8.92241 5.45061e-19)
(43.6616 9.38691 2.16805e-19)
(43.6158 9.86303 -3.86592e-19)
(43.6622 10.4249 -5.62839e-19)
(43.6831 11.0123 3.29925e-19)
(43.6105 11.5427 5.35834e-19)
(43.5769 12.107 0)
(43.6103 12.7246 0)
(43.6278 13.3119 0)
(43.6416 13.8705 -5.63917e-19)
(43.7152 14.4193 -4.05932e-19)
(43.8308 14.9795 -3.87705e-19)
(43.9417 15.5262 6.25619e-19)
(44.1073 16.0431 7.56251e-19)
(44.3326 16.5726 -3.21327e-19)
(44.5531 17.0705 1.05079e-18)
(44.8323 17.5521 -6.13252e-19)
(45.1487 18.0026 -8.15583e-19)
(45.4904 18.4301 -9.99651e-19)
(45.8874 18.824 1.11458e-18)
(46.3336 19.1792 0)
(46.9876 19.6184 1.69158e-18)
(47.2859 19.7855 -9.34625e-19)
(47.1201 19.6993 1.23444e-18)
(45.3899 18.9344 0)
(39.4037 16.2749 -1.7174e-18)
(24.9557 9.50101 9.82832e-19)
(3.52339 0.0925335 0)
(40.4534 0.230714 -1.94823e-19)
(42.6855 0.162125 0)
(42.756 0.772382 -4.6501e-19)
(42.8535 0.864893 3.02698e-19)
(42.9277 1.29526 2.76898e-19)
(43.0087 1.55444 -1.1403e-20)
(43.121 1.84637 1.26906e-20)
(43.2503 2.1732 0)
(43.3863 2.47844 4.69888e-19)
(43.5031 2.85025 -3.29593e-19)
(43.5838 3.18968 -3.20469e-19)
(43.7158 3.54125 3.92825e-19)
(43.8345 3.93023 -2.63113e-19)
(43.9446 4.34288 -6.74509e-20)
(44.0492 4.77325 3.80781e-20)
(44.1338 5.22396 0)
(44.2087 5.69017 -4.04041e-19)
(44.2688 6.17339 4.58e-19)
(44.315 6.67182 6.44121e-20)
(44.3522 7.18414 -1.25721e-21)
(44.3747 7.71227 8.29789e-20)
(44.3759 8.25213 0)
(44.357 8.81139 1.09285e-19)
(44.4094 9.45759 4.35545e-19)
(44.4256 10.1022 4.9319e-19)
(44.3079 10.6613 5.65856e-19)
(44.2053 11.1914 0)
(44.2413 11.7831 -3.7834e-19)
(44.2805 12.3542 -8.09529e-19)
(44.279 12.8596 4.34353e-19)
(44.313 13.3784 -9.19352e-19)
(44.3932 13.9132 -4.41384e-19)
(44.4555 14.4461 7.6809e-19)
(44.5119 14.9478 -2.77074e-19)
(44.657 15.4394 -6.31002e-19)
(44.8279 15.9444 -3.18566e-19)
(44.996 16.3985 -4.48599e-19)
(45.2407 16.8442 0)
(45.5003 17.2577 -7.42027e-19)
(45.786 17.6473 1.64557e-18)
(46.1182 17.9958 1.01094e-18)
(46.4777 18.3095 -1.19511e-18)
(46.9646 18.6557 1.46691e-18)
(47.2887 18.8447 -7.45413e-19)
(47.3081 18.8394 1.97854e-18)
(46.645 18.4859 -1.74268e-20)
(43.6866 17.1552 0)
(35.3908 13.5102 3.46216e-18)
(18.0778 5.69718 -2.90262e-18)
(1.26532 -0.291019 -1.02672e-18)
(40.7101 0.271371 1.94984e-19)
(43.059 0.123991 -2.80982e-19)
(43.1374 0.723883 2.58334e-19)
(43.2514 0.792828 -2.97712e-19)
(43.3368 1.20503 -2.0898e-19)
(43.4881 1.47132 -1.37449e-20)
(43.6176 1.81676 7.77681e-21)
(43.7618 2.15412 0)
(43.8767 2.53028 -3.45677e-19)
(44.0172 2.87225 5.37056e-19)
(44.1858 3.29042 0)
(44.3313 3.72875 -3.2325e-20)
(44.4587 4.16641 1.53526e-20)
(44.5776 4.6201 3.28787e-19)
(44.6911 5.08802 -4.73489e-19)
(44.7833 5.57444 -1.34803e-21)
(44.8611 6.07738 6.2155e-20)
(44.9224 6.59611 0)
(44.9688 7.12746 -2.24335e-19)
(45.0028 7.67069 4.60249e-19)
(45.024 8.22193 -5.25102e-20)
(45.035 8.77193 0)
(45.0442 9.31244 0)
(44.9936 9.79605 -2.14034e-19)
(44.927 10.2511 8.98426e-20)
(44.9657 10.7827 -6.50551e-19)
(45.0336 11.3647 2.32417e-19)
(44.991 11.8741 -1.31554e-19)
(44.9438 12.3774 4.01056e-19)
(44.976 12.9409 1.7468e-19)
(45.0075 13.4838 5.21644e-19)
(45.0123 13.9828 -5.56184e-19)
(45.0611 14.4505 3.5546e-19)
(45.1843 14.9228 -3.52413e-19)
(45.2983 15.3879 -4.03743e-19)
(45.4317 15.8005 -4.24998e-19)
(45.6393 16.2168 0)
(45.8302 16.5985 1.01244e-18)
(46.0558 16.9569 -3.76251e-19)
(46.318 17.2737 -8.92196e-19)
(46.5887 17.5632 1.05716e-18)
(46.9398 17.8527 -2.45856e-20)
(47.3239 18.1026 -7.25155e-19)
(47.4339 18.1479 -1.84424e-20)
(47.2494 18.0368 -1.05882e-18)
(45.596 17.3203 -2.5043e-18)
(40.5213 15.2779 1.4008e-18)
(28.8019 10.5032 0)
(8.75597 2.26991 -1.82651e-18)
(-0.53938 -0.15975 3.51962e-18)
(40.9081 0.229518 5.34107e-22)
(43.4136 0.139657 2.82564e-19)
(43.4939 0.753018 -9.11862e-20)
(43.5844 0.829816 -3.06937e-21)
(43.6761 1.25736 2.09307e-19)
(43.7795 1.49288 0)
(43.9217 1.79406 0)
(44.0723 2.11547 -1.10242e-20)
(44.2626 2.4397 5.95693e-19)
(44.4103 2.82401 -2.11556e-19)
(44.5277 3.16583 1.68953e-20)
(44.6912 3.53044 -3.82878e-20)
(44.8507 3.9407 1.75156e-19)
(45.0033 4.37324 -1.74997e-19)
(45.1494 4.82884 6.79164e-19)
(45.2738 5.30722 -1.45725e-19)
(45.3864 5.80122 1.67041e-19)
(45.4828 6.31363 4.42059e-20)
(45.5621 6.84255 -4.63201e-19)
(45.6297 7.38377 -3.00319e-19)
(45.6789 7.93741 1.14324e-21)
(45.7054 8.49813 -7.29654e-20)
(45.7082 9.07133 0)
(45.7582 9.71072 -2.9856e-19)
(45.8036 10.3752 8.65604e-22)
(45.7131 10.9586 5.94395e-20)
(45.579 11.4642 6.91822e-20)
(45.5796 12.0174 1.71809e-19)
(45.6278 12.5767 0)
(45.6215 13.0489 1.05886e-19)
(45.6182 13.4983 5.84635e-19)
(45.6768 13.9555 5.19105e-19)
(45.744 14.4186 -2.65614e-19)
(45.7754 14.8495 5.45159e-19)
(45.8774 15.2452 -4.4199e-19)
(46.0302 15.6577 -2.65316e-19)
(46.151 16.0188 0)
(46.3335 16.3619 -6.78849e-19)
(46.5381 16.6657 -4.22986e-19)
(46.7458 16.9476 4.72457e-19)
(47.0132 17.2088 -5.49114e-19)
(47.3625 17.4778 6.10353e-19)
(47.4866 17.5611 0)
(47.3853 17.5355 4.50824e-19)
(46.3697 17.1347 0)
(43.1423 15.8785 6.11881e-19)
(35.3222 12.7946 -1.37613e-18)
(20.293 6.7811 7.69257e-19)
(3.72001 0.804074 0)
(-1.27272 -0.0650434 2.3139e-19)
(41.1469 0.228614 7.83086e-23)
(43.761 0.0864376 8.98477e-23)
(43.8722 0.6467 9.37734e-20)
(43.9775 0.68784 4.58205e-22)
(44.0815 1.10024 3.88946e-21)
(44.2523 1.33572 6.03168e-22)
(44.4306 1.67611 -6.71387e-22)
(44.6039 2.01761 1.60378e-21)
(44.7582 2.37733 -2.17992e-19)
(44.9437 2.72386 -4.50191e-21)
(45.1632 3.15203 -2.47398e-21)
(45.3674 3.60449 5.61383e-21)
(45.5484 4.05909 1.88628e-19)
(45.7296 4.53709 -2.20871e-19)
(45.9012 5.03738 -2.67591e-19)
(46.0414 5.55518 1.45676e-19)
(46.1618 6.09216 -1.61561e-19)
(46.261 6.64748 -7.01824e-21)
(46.3402 7.21584 -8.02318e-21)
(46.401 7.79551 0)
(46.4395 8.38147 -1.04142e-20)
(46.4577 8.9632 -5.50614e-21)
(46.467 9.53409 6.16236e-21)
(46.4306 10.0572 0)
(46.3255 10.5097 0)
(46.3127 11.0079 2.5712e-19)
(46.3932 11.5854 0)
(46.3689 12.0951 -1.72032e-19)
(46.2784 12.5469 0)
(46.2592 13.0474 7.90293e-21)
(46.2714 13.5453 -2.73519e-19)
(46.2464 13.9978 1.92532e-20)
(46.2275 14.3996 -3.62641e-19)
(46.3131 14.7894 3.20944e-20)
(46.4116 15.1883 1.98104e-19)
(46.4808 15.5222 2.99719e-19)
(46.6335 15.8486 -1.02679e-20)
(46.7756 16.1415 0)
(46.9214 16.4149 -6.8738e-21)
(47.1173 16.656 7.90662e-21)
(47.3889 16.9287 0)
(47.4931 17.0493 -1.00588e-20)
(47.4605 17.0874 -4.97571e-20)
(46.8537 16.8934 -3.96494e-19)
(44.8291 16.1527 -8.0501e-21)
(39.3743 14.101 0)
(27.9571 9.79746 0)
(9.18479 2.71017 1.05583e-19)
(0.295203 0.248514 -1.04553e-19)
(-1.67565 -0.133355 2.35115e-19)
(41.2887 0.151542 1.92364e-19)
(44.0787 0.0633233 2.14406e-19)
(44.1745 0.625094 1.19074e-19)
(44.2895 0.651832 1.40282e-19)
(44.3899 1.06505 1.48521e-19)
(44.5345 1.26263 -1.76356e-19)
(44.7018 1.55171 0)
(44.9101 1.84946 0)
(45.1351 2.17658 1.40543e-19)
(45.3458 2.55189 4.50137e-21)
(45.5258 2.90249 -1.77956e-19)
(45.7334 3.27847 -1.26655e-20)
(45.952 3.70069 -2.39515e-19)
(46.1485 4.15448 2.77964e-19)
(46.3355 4.63163 3.50143e-19)
(46.5115 5.1406 0)
(46.6703 5.67078 0)
(46.8102 6.22074 7.01666e-21)
(46.9283 6.78973 8.02139e-21)
(47.027 7.37277 -3.38377e-19)
(47.0998 7.9672 1.04115e-20)
(47.1453 8.56514 0)
(47.1651 9.17091 0)
(47.1854 9.81115 -6.54766e-20)
(47.2299 10.5014 -3.15299e-19)
(47.166 11.1401 9.22276e-20)
(46.989 11.6521 0)
(46.9004 12.1688 -2.2295e-19)
(46.9091 12.7202 0)
(46.8749 13.1831 -7.90006e-21)
(46.7978 13.5832 0)
(46.7805 13.9668 0)
(46.8295 14.36 9.85879e-20)
(46.8304 14.7388 1.13355e-19)
(46.8499 15.0562 0)
(46.9581 15.388 0)
(47.0262 15.6807 1.0262e-20)
(47.1239 15.9557 0)
(47.2694 16.1913 6.86914e-21)
(47.4629 16.4586 -2.61563e-19)
(47.5793 16.6427 2.75423e-19)
(47.5914 16.6935 1.92255e-20)
(47.2181 16.6449 1.05883e-20)
(45.803 16.1773 -4.43627e-19)
(41.7022 14.7003 -2.53321e-19)
(32.6977 11.4227 1.44727e-18)
(16.8372 5.54975 -6.47145e-19)
(3.04365 1.08391 -7.40717e-19)
(-1.54509 0.218895 6.10295e-19)
(-1.70562 -0.0160481 0)
(41.4465 0.151042 -1.91571e-19)
(44.3602 -0.0241351 2.51647e-19)
(44.4831 0.465972 -1.16891e-19)
(44.6135 0.445901 1.64495e-19)
(44.7522 0.82444 -1.57596e-19)
(44.9564 1.00506 1.81551e-19)
(45.1718 1.33057 1.40834e-20)
(45.3876 1.64124 -1.56803e-20)
(45.6116 1.97708 -1.21497e-19)
(45.8505 2.31893 -2.11179e-20)
(46.1342 2.73946 1.89182e-19)
(46.4033 3.19902 4.91508e-19)
(46.6543 3.667 -3.17116e-19)
(46.9024 4.16475 -2.54755e-19)
(47.1396 4.69162 -1.15449e-18)
(47.3602 5.24596 5.31416e-20)
(47.5556 5.82707 -5.92718e-20)
(47.7055 6.43024 5.88684e-19)
(47.826 7.05118 8.00019e-20)
(47.9182 7.68534 2.48601e-19)
(47.9761 8.32712 0)
(48.0008 8.96561 0)
(48.0008 9.59521 0)
(47.9572 10.1865 0)
(47.8108 10.6804 3.14182e-19)
(47.7059 11.1625 -7.97485e-19)
(47.7431 11.7402 0)
(47.719 12.2841 7.19587e-19)
(47.5695 12.7189 0)
(47.4452 13.1595 0)
(47.3918 13.6069 -6.89748e-19)
(47.3292 14.0232 3.73299e-19)
(47.2191 14.3828 -8.39406e-19)
(47.2118 14.6937 2.42111e-19)
(47.2815 15.0296 0)
(47.2855 15.3079 0)
(47.361 15.5693 3.5533e-19)
(47.4652 15.7961 -1.21313e-18)
(47.5836 16.0422 0)
(47.7064 16.2741 -7.42404e-19)
(47.7317 16.3477 1.12754e-18)
(47.44 16.3386 -1.36591e-18)
(46.3804 16.0741 7.75941e-19)
(43.1922 14.9722 -9.00972e-19)
(36.0437 12.4503 2.27335e-18)
(22.7679 7.63977 -1.98421e-18)
(6.54713 2.13124 1.27744e-18)
(-0.435127 0.506054 -2.8514e-18)
(-2.38605 0.158131 3.35005e-18)
(-1.62199 0.0811569 -2.17097e-18)
(41.4822 0.0490583 -4.45844e-19)
(44.5738 -0.0765947 3.27116e-20)
(44.6947 0.375516 0)
(44.8192 0.347958 -3.02422e-19)
(44.9621 0.703609 -7.66632e-19)
(45.1509 0.83644 2.55372e-20)
(45.3802 1.08749 0)
(45.6512 1.36287 0)
(45.9276 1.66165 -4.17272e-20)
(46.2122 2.01444 4.64827e-20)
(46.4667 2.35416 -9.2612e-19)
(46.7416 2.72652 5.91109e-19)
(47.0383 3.15656 5.70814e-19)
(47.3119 3.62832 -7.35727e-19)
(47.5749 4.13421 7.68145e-19)
(47.8034 4.67715 1.19629e-19)
(48.0063 5.24675 -1.28055e-18)
(48.207 5.84617 -1.90796e-18)
(48.3768 6.47249 0)
(48.5165 7.11742 8.66172e-19)
(48.6191 7.77744 9.86685e-19)
(48.6847 8.44223 0)
(48.7162 9.11125 -1.26478e-18)
(48.7031 9.78605 0)
(48.715 10.5163 0)
(48.6734 11.2495 7.95004e-19)
(48.4617 11.8277 5.22763e-19)
(48.2413 12.3327 1.12617e-18)
(48.1402 12.8793 0)
(48.0466 13.3593 0)
(47.8772 13.7471 3.29895e-19)
(47.7256 14.074 3.99229e-19)
(47.7058 14.3831 1.36352e-18)
(47.6857 14.71 2.98072e-21)
(47.6081 14.9618 5.84648e-21)
(47.6446 15.2128 -1.27634e-18)
(47.6862 15.4379 -1.27241e-20)
(47.7401 15.6768 1.60429e-18)
(47.8622 15.9335 8.82462e-19)
(47.8902 16.03 4.95605e-19)
(47.6414 16.0567 1.21423e-18)
(46.796 15.8978 2.42492e-20)
(44.3223 15.1221 -1.55869e-18)
(38.4682 13.1068 -8.89411e-19)
(26.9108 9.02067 -2.50325e-18)
(9.98446 3.27594 2.80124e-18)
(1.29008 0.899267 -1.24797e-18)
(-1.97834 0.30356 0)
(-2.53413 0.185683 0)
(-1.39507 0.130133 4.26368e-19)
(41.4195 0.00429677 1.35938e-18)
(44.7229 -0.175532 5.54039e-19)
(44.9023 0.155914 -5.95522e-19)
(45.0507 0.0859452 2.12214e-20)
(45.2371 0.398182 1.52785e-18)
(45.487 0.505599 -2.72314e-20)
(45.7453 0.792384 0)
(46.0212 1.0381 -1.23935e-18)
(46.3147 1.33493 -4.51286e-20)
(46.6337 1.6435 -2.54832e-21)
(46.993 2.04227 1.98263e-18)
(47.349 2.49074 -1.00749e-18)
(47.6893 2.95532 3.84783e-21)
(48.0236 3.46352 6.39914e-19)
(48.349 4.01236 0)
(48.6555 4.60101 0)
(48.9365 5.22846 9.90665e-19)
(49.1907 5.89146 1.48735e-18)
(49.3934 6.58423 0)
(49.5343 7.29589 -8.63299e-19)
(49.6283 8.02311 -9.83292e-19)
(49.673 8.75346 -2.96683e-19)
(49.6692 9.48085 1.81226e-19)
(49.6011 10.1802 1.21199e-18)
(49.4302 10.7862 4.19625e-19)
(49.2145 11.3058 4.65657e-19)
(49.1384 11.898 -1.50662e-18)
(49.0749 12.5129 -1.09304e-18)
(48.8672 12.9927 1.32787e-18)
(48.5979 13.4035 -1.45686e-18)
(48.4039 13.7946 0)
(48.2813 14.166 0)
(48.0863 14.5012 2.3815e-20)
(47.9195 14.733 -1.04517e-18)
(47.9174 14.9778 1.18465e-18)
(47.8851 15.1873 1.98457e-18)
(47.9012 15.3952 -7.27834e-19)
(48.0293 15.6297 -1.58202e-18)
(48.0558 15.7334 -1.78663e-18)
(47.8443 15.7692 -1.07185e-18)
(47.1458 15.6941 -1.92779e-20)
(45.1874 15.1527 1.3767e-18)
(40.2041 13.5121 0)
(29.6849 9.86194 8.81212e-19)
(13.5023 4.50596 9.86256e-19)
(2.90132 1.4829 1.09694e-18)
(-1.31368 0.707593 3.68046e-18)
(-2.62129 0.444177 -1.3686e-18)
(-2.43423 0.341118 0)
(-1.15656 0.170671 0)
(41.2857 -0.0203755 1.65525e-20)
(44.7942 -0.240605 -1.0496e-18)
(44.9735 0.0490689 6.13863e-19)
(45.1334 -0.0475229 -1.40827e-18)
(45.2987 0.212027 -8.33199e-19)
(45.5539 0.263525 -1.33876e-21)
(45.8398 0.452406 3.32177e-20)
(46.1715 0.662894 1.15507e-18)
(46.5265 0.905667 9.10297e-20)
(46.8845 1.21953 1.12895e-19)
(47.2352 1.52273 -9.90029e-19)
(47.5999 1.8718 -1.47886e-19)
(47.9952 2.29002 -1.47333e-18)
(48.3728 2.76465 -1.7316e-18)
(48.7376 3.28696 2.49886e-19)
(49.0697 3.86137 -2.78728e-19)
(49.3707 4.47964 0)
(49.6308 5.13988 -1.60283e-18)
(49.8629 5.8354 0)
(50.0707 6.56295 0)
(50.2265 7.31897 0)
(50.3305 8.08693 -6.58479e-19)
(50.3817 8.86035 2.13786e-18)
(50.3624 9.62994 -1.57758e-18)
(50.3254 10.4293 0)
(50.3064 11.2929 -5.1399e-19)
(50.0746 12.023 -1.83574e-18)
(49.7185 12.5844 -2.64758e-18)
(49.427 13.1435 -2.00052e-18)
(49.2062 13.6638 1.3777e-18)
(48.9396 14.0874 -1.64398e-18)
(48.6079 14.402 9.07592e-19)
(48.4038 14.6115 2.01547e-18)
(48.3332 14.8472 0)
(48.1732 15.0161 1.24555e-18)
(48.1114 15.1645 -2.64086e-18)
(48.1949 15.3397 -1.19165e-20)
(48.1869 15.4422 1.62121e-18)
(48.017 15.4621 9.31383e-19)
(47.4283 15.4443 0)
(45.7822 15.052 1.22585e-18)
(41.5241 13.727 -1.40053e-18)
(31.7105 10.4345 3.14108e-18)
(16.1908 5.44191 0)
(4.60304 2.16558 -3.88996e-18)
(-0.410274 1.23113 1.08073e-18)
(-2.27651 1.01141 -1.2017e-18)
(-2.81223 0.914161 -1.34242e-18)
(-2.3654 0.654102 3.00124e-18)
(-1.02964 0.252231 1.58732e-21)
(41.0578 -0.0987938 -9.49656e-19)
(44.7886 -0.374628 1.0804e-18)
(45.0271 -0.185494 -1.23389e-18)
(45.2142 -0.342051 2.83244e-18)
(45.4544 -0.122628 -1.70487e-18)
(45.7455 -0.121186 1.20285e-19)
(46.0457 0.0975772 -1.20342e-18)
(46.3951 0.262258 0)
(46.7699 0.483559 -1.58282e-18)
(47.173 0.734682 1.99307e-18)
(47.6237 1.07787 8.01107e-21)
(48.0811 1.49163 -1.56239e-19)
(48.5333 1.92649 1.46839e-18)
(48.9822 2.42308 -1.14382e-19)
(49.4233 2.97672 1.89891e-18)
(49.8498 3.58639 3.00267e-19)
(50.2463 4.25556 0)
(50.6161 4.97704 1.59563e-18)
(50.9361 5.74774 4.02439e-18)
(51.1853 6.55679 0)
(51.3751 7.3968 0)
(51.4855 8.25738 0)