/*--------------------------------*- C++ -*----------------------------------*\
| =========                 |                                                 |
| \\      /  F ield         | OpenFOAM: The Open Source CFD Toolbox           |
|  \\    /   O peration     | Version:  v1912                                 |
|   \\  /    A nd           | Website:  www.openfoam.com                      |
|    \\/     M anipulation  |                                                 |
\*---------------------------------------------------------------------------*/
FoamFile
{
    version     2.0;
    format      ascii;
    class       surfaceScalarField;
    location    "0.04";
    object      phi;
}
// * * * * * * * * * * * * * * * * * * * * * * * * * * * * * * * * * * * * * //

dimensions      [0 3 -1 0 0 0 0];
oriented        oriented;


internalField   nonuniform List<scalar> 
13060
(
0.00602766
0.988181
-0.994208
0.00824601
0.944974
-0.947192
0.00979237
0.898886
-0.900432
0.0110593
0.85548
-0.856747
0.0121484
0.814206
-0.815295
0.0129942
0.775448
-0.776294
0.0140492
0.738089
-0.739144
0.0150278
0.702495
-0.703474
0.0157062
0.668963
-0.669641
0.0166259
0.636499
-0.637419
0.017651
0.605702
-0.606727
0.0186043
0.576167
-0.57712
0.0192078
0.548106
-0.548709
0.019454
0.521681
-0.521928
0.019468
0.496658
-0.496672
0.0193291
0.47291
-0.472771
0.0191297
0.45021
-0.45001
0.0189316
0.428484
-0.428286
0.0187768
0.407711
-0.407556
0.0186508
0.387876
-0.38775
0.018519
0.368927
-0.368795
0.0183556
0.350808
-0.350645
0.0182075
0.333489
-0.333341
0.0180917
0.316996
-0.31688
0.0179299
0.301418
-0.301256
0.0176056
0.286708
-0.286384
0.0171439
0.272728
-0.272267
0.0165641
0.25948
-0.2589
0.0158672
0.246977
-0.24628
0.0150206
0.235151
-0.234305
0.0140858
0.223807
-0.222873
0.0132367
0.213023
-0.212174
0.0124778
0.202944
-0.202185
0.0116173
0.193485
-0.192624
0.0107572
0.184532
-0.183672
0.00989158
0.176239
-0.175373
0.00893369
0.168412
-0.167454
0.00796488
0.160943
-0.159974
0.00698272
0.154012
-0.15303
0.0059114
0.147436
-0.146364
0.0048147
0.141123
-0.140026
0.00373851
0.135355
-0.134278
0.00271363
0.129891
-0.128866
0.00172437
0.124781
-0.123792
0.000792356
0.11982
-0.118888
-2.35582e-05
0.115272
-0.114456
-0.00100864
0.110661
-0.109676
-0.00189218
0.107166
-0.106282
-0.00187997
0.0986746
-0.0986868
0.0693239
-0.0712039
0.00610765
0.982073
0.00797838
0.943103
0.00895241
0.897912
0.00975092
0.854682
0.0103721
0.813585
0.0109861
0.774834
0.0119094
0.737166
0.0123933
0.702011
0.013078
0.668278
0.0140097
0.635568
0.0147723
0.60494
0.0152897
0.575649
0.0153653
0.54803
0.0151357
0.521911
0.0147668
0.497027
0.014367
0.47331
0.0139804
0.450596
0.0136103
0.428854
0.0132814
0.408039
0.0130121
0.388146
0.0127762
0.369163
0.0125109
0.351073
0.0121575
0.333843
0.0117641
0.31739
0.0114127
0.30177
0.0110567
0.287064
0.0106717
0.273113
0.0102835
0.259868
0.00993745
0.247323
0.00957513
0.235514
0.00907521
0.224307
0.00839997
0.213698
0.0076354
0.203708
0.00680983
0.19431
0.00592369
0.185418
0.00505104
0.177111
0.00420677
0.169256
0.00333589
0.161814
0.00248691
0.154861
0.00167026
0.148252
0.000867941
0.141925
0.000129043
0.136094
-0.000644296
0.130664
-0.0013669
0.125504
-0.00203596
0.120489
-0.0026132
0.115849
-0.0031156
0.111163
-0.00313027
0.10718
-0.00240726
0.0979516
0.0669166
0.00520581
0.976867
0.00659256
0.941716
0.007918
0.896586
0.00868461
0.853915
0.00910457
0.813165
0.00966856
0.77427
0.0101329
0.736702
0.010632
0.701512
0.011495
0.667415
0.0118963
0.635166
0.0119497
0.604886
0.0117626
0.575837
0.0112378
0.548555
0.010609
0.52254
0.00999337
0.497642
0.00950039
0.473803
0.00916017
0.450937
0.00892175
0.429093
0.00871736
0.408244
0.0085266
0.388336
0.00834812
0.369341
0.00817044
0.351251
0.00796827
0.334045
0.00766524
0.317693
0.00729378
0.302141
0.00686964
0.287488
0.00633318
0.27365
0.00565933
0.260542
0.00488293
0.248099
0.00405032
0.236346
0.00322319
0.225134
0.00253491
0.214386
0.00195566
0.204287
0.00137156
0.194894
0.000741738
0.186048
0.000102692
0.17775
-0.0005786
0.169938
-0.00122951
0.162464
-0.00186499
0.155496
-0.00251527
0.148903
-0.00313215
0.142542
-0.00366662
0.136628
-0.00408157
0.131079
-0.00441176
0.125834
-0.00465625
0.120734
-0.0047903
0.115983
-0.00485623
0.111229
-0.00430343
0.106628
-0.00300104
0.0966492
0.0639156
0.00580379
0.971063
0.00753286
0.939987
0.00858585
0.895533
0.00887681
0.853624
0.00908645
0.812955
0.00913195
0.774225
0.00918762
0.736646
0.00957607
0.701124
0.00982546
0.667166
0.0093324
0.635659
0.00861073
0.605608
0.00764457
0.576803
0.00665333
0.549546
0.00580629
0.523387
0.00505578
0.498393
0.00444
0.474418
0.00395596
0.451421
0.00359383
0.429455
0.00328874
0.408549
0.00299328
0.388632
0.00267646
0.369658
0.00228819
0.351639
0.00186962
0.334463
0.00141841
0.318144
0.00095447
0.302605
0.000533116
0.287909
0.000138242
0.274045
-0.000196246
0.260876
-0.000502194
0.248405
-0.000809336
0.236654
-0.00130896
0.225634
-0.00204345
0.215121
-0.00280291
0.205047
-0.00347573
0.195567
-0.00411671
0.186689
-0.00473363
0.178367
-0.00531553
0.170519
-0.00587761
0.163027
-0.00634298
0.155962
-0.00672067
0.14928
-0.00705334
0.142875
-0.00729287
0.136868
-0.00741711
0.131203
-0.00740453
0.125821
-0.00727093
0.1206
-0.00696913
0.115682
-0.00656937
0.11083
-0.00557408
0.105632
-0.00365193
0.0947271
0.0602637
0.0139405
0.957123
0.0120264
0.941901
0.0119594
0.8956
0.0106561
0.854928
0.00975716
0.813854
0.00920814
0.774774
0.00879128
0.737063
0.00821215
0.701703
0.00716932
0.668209
0.00556672
0.637262
0.00415901
0.607016
0.00282148
0.57814
0.00175233
0.550615
0.000934814
0.524204
0.00035984
0.498968
-5.58808e-05
0.474834
-0.000383715
0.451749
-0.00065861
0.42973
-0.000917911
0.408808
-0.00117721
0.388891
-0.00143677
0.369918
-0.00166927
0.351872
-0.00198328
0.334777
-0.00238927
0.31855
-0.00290018
0.303116
-0.00347272
0.288482
-0.0041607
0.274733
-0.00497733
0.261693
-0.00584572
0.249273
-0.00668461
0.237492
-0.00733524
0.226285
-0.00781975
0.215605
-0.00830263
0.20553
-0.00879325
0.196058
-0.00924867
0.187144
-0.00966339
0.178782
-0.0100224
0.170878
-0.0102937
0.163298
-0.0105131
0.156181
-0.0106657
0.149433
-0.0107223
0.142931
-0.0106619
0.136807
-0.0104734
0.131015
-0.0101367
0.125485
-0.00964015
0.120103
-0.00896572
0.115007
-0.00822527
0.110089
-0.00686773
0.104275
-0.00435171
0.092211
0.055912
0.0258912
0.931232
0.0138274
0.953965
0.0131497
0.896278
0.00968176
0.858396
0.00909809
0.814437
0.0080958
0.775776
0.00668434
0.738474
0.00482807
0.703559
0.00269857
0.670338
0.000634035
0.639327
-0.000847852
0.608497
-0.00223494
0.579527
-0.00331521
0.551695
-0.00415647
0.525046
-0.00475609
0.499567
-0.00518162
0.47526
-0.0055478
0.452115
-0.00590131
0.430083
-0.00625988
0.409167
-0.0066798
0.389311
-0.00722086
0.370459
-0.00779012
0.352441
-0.00832997
0.335317
-0.00882558
0.319045
-0.00931795
0.303608
-0.00977332
0.288937
-0.0101287
0.275088
-0.010435
0.261999
-0.0107266
0.249565
-0.0110711
0.237837
-0.0115636
0.226777
-0.0121939
0.216236
-0.0128064
0.206142
-0.0132753
0.196527
-0.0136694
0.187538
-0.0139868
0.179099
-0.0142556
0.171147
-0.0144606
0.163503
-0.0145103
0.156231
-0.0144193
0.149342
-0.0142262
0.142738
-0.0139041
0.136485
-0.013443
0.130554
-0.0128303
0.124872
-0.0120775
0.119351
-0.0111457
0.114075
-0.0100552
0.108999
-0.00824412
0.102464
-0.00502329
0.0889902
0.0508887
0.0227567
0.908475
0.00929419
0.967428
0.0106221
0.89495
0.00586792
0.86315
0.00526495
0.81504
0.00276164
0.778279
0.000626944
0.740609
-0.00156364
0.70575
-0.0037291
0.672504
-0.00509044
0.640688
-0.00608581
0.609493
-0.0070981
0.58054
-0.00778324
0.552381
-0.00837125
0.525634
-0.00882698
0.500023
-0.00920471
0.475637
-0.00955671
0.452467
-0.00991037
0.430437
-0.0102205
0.409477
-0.0104708
0.389561
-0.0107328
0.370721
-0.0111377
0.352846
-0.0116469
0.335826
-0.0122442
0.319643
-0.0129015
0.304266
-0.0136184
0.289654
-0.0143915
0.275861
-0.0152183
0.262826
-0.0160854
0.250432
-0.0167766
0.238528
-0.0172457
0.227246
-0.0176015
0.216592
-0.017921
0.206462
-0.0182151
0.196821
-0.018404
0.187727
-0.0185108
0.179206
-0.0184949
0.171131
-0.0183754
0.163383
-0.018191
0.156046
-0.0178963
0.149047
-0.0174641
0.142306
-0.0168961
0.135917
-0.0161813
0.129839
-0.0153213
0.124012
-0.0143385
0.118368
-0.0132517
0.112989
-0.0118087
0.107556
-0.00959857
0.100254
-0.00570412
0.0850957
0.0451846
0.0086304
0.899844
0.00385221
0.972206
0.00663846
0.892164
0.000973402
0.868815
-0.000633766
0.816648
-0.00430025
0.781946
-0.00623648
0.742545
-0.00823599
0.707749
-0.0097968
0.674064
-0.0104438
0.641335
-0.0113826
0.610432
-0.0119785
0.581135
-0.0124287
0.552831
-0.0128367
0.526042
-0.0132076
0.500394
-0.0136017
0.476031
-0.0140608
0.452926
-0.0146269
0.431003
-0.015282
0.410132
-0.0159526
0.390232
-0.0165703
0.371339
-0.017147
0.353423
-0.017715
0.336394
-0.0182887
0.320216
-0.0188466
0.304823
-0.0193285
0.290136
-0.0196725
0.276205
-0.0199092
0.263063
-0.020126
0.250649
-0.0204713
0.238873
-0.0209477
0.227723
-0.0214252
0.217069
-0.0218144
0.206851
-0.0220639
0.19707
-0.022208
0.187871
-0.0222416
0.17924
-0.0222087
0.171098
-0.0220565
0.163231
-0.0217043
0.155694
-0.0211976
0.14854
-0.0205774
0.141686
-0.0198218
0.135162
-0.0189256
0.128943
-0.0178816
0.122968
-0.0167134
0.1172
-0.0154794
0.111755
-0.0136568
0.105733
-0.0109897
0.0975865
-0.0063486
0.0804546
0.038836
-0.00590562
0.90575
-0.00442365
0.970724
-0.0013767
0.889117
-0.00652871
0.873967
-0.00731423
0.817433
-0.0105578
0.785189
-0.0117464
0.743734
-0.0131992
0.709202
-0.0138542
0.674719
-0.0142573
0.641738
-0.0149932
0.611168
-0.0154227
0.581565
-0.0159219
0.55333
-0.0163013
0.526421
-0.0166307
0.500724
-0.0169259
0.476327
-0.0172493
0.453249
-0.0176325
0.431386
-0.0180987
0.410598
-0.018635
0.390768
-0.0192158
0.371919
-0.0198285
0.354035
-0.0204876
0.337054
-0.0211625
0.320891
-0.0218961
0.305557
-0.022734
0.290974
-0.0236342
0.277105
-0.0245185
0.263947
-0.025269
0.251399
-0.0257866
0.239391
-0.0260732
0.228009
-0.0262457
0.217242
-0.0263949
0.207
-0.0264725
0.197148
-0.0264151
0.187814
-0.0262295
0.179054
-0.0258804
0.170749
-0.0254344
0.162785
-0.0249319
0.155192
-0.024296
0.147905
-0.0234999
0.14089
-0.0225718
0.134233
-0.0215145
0.127886
-0.0203339
0.121787
-0.019022
0.115888
-0.0175956
0.110328
-0.0155578
0.103695
-0.0124487
0.0944774
-0.00699537
0.0750013
0.0318406
-0.0161981
0.921948
-0.0129646
0.96749
-0.00997136
0.886123
-0.013533
0.877528
-0.0126194
0.816519
-0.0156168
0.788187
-0.0159973
0.744114
-0.0171653
0.71037
-0.0171874
0.674742
-0.0174997
0.64205
-0.01774
0.611408
-0.0180275
0.581852
-0.0186434
0.553946
-0.0193497
0.527127
-0.0200529
0.501427
-0.0207256
0.476999
-0.0213686
0.453892
-0.0219964
0.432014
-0.0226826
0.411284
-0.0234586
0.391544
-0.0242541
0.372715
-0.0250184
0.3548
-0.0257714
0.337807
-0.0264729
0.321593
-0.0270404
0.306125
-0.0274596
0.291393
-0.0277412
0.277387
-0.0279672
0.264173
-0.0282599
0.251692
-0.0286457
0.239777
-0.0290418
0.228405
-0.0293682
0.217568
-0.0295672
0.207199
-0.0296518
0.197232
-0.029606
0.187768
-0.0294311
0.178879
-0.0291695
0.170488
-0.0287371
0.162353
-0.0280741
0.154529
-0.0272757
0.147106
-0.0263852
0.139999
-0.0253691
0.133217
-0.0242167
0.126733
-0.0229389
0.120509
-0.0216279
0.114577
-0.0199092
0.10861
-0.0176123
0.101398
-0.013948
0.0908131
-0.00763888
0.0686921
0.0242017
-0.0202119
0.94216
-0.0140403
0.961319
-0.0142127
0.886296
-0.0163289
0.879645
-0.0145021
0.814693
-0.0175957
0.79128
-0.0176551
0.744174
-0.0192899
0.712005
-0.0194373
0.674889
-0.0199327
0.642546
-0.0198126
0.611288
-0.0197599
0.5818
-0.0200241
0.55421
-0.0205948
0.527698
-0.0213959
0.502228
-0.0222994
0.477903
-0.0231418
0.454735
-0.0238601
0.432732
-0.0244869
0.411911
-0.0251338
0.392191
-0.0258685
0.37345
-0.0266543
0.355585
-0.0274735
0.338626
-0.028376
0.322495
-0.0293491
0.307098
-0.0303709
0.292415
-0.0313803
0.278396
-0.0322461
0.265039
-0.0328705
0.252316
-0.0332537
0.24016
-0.0334773
0.228629
-0.0335698
0.21766
-0.0335787
0.207208
-0.0334782
0.197132
-0.0332567
0.187546
-0.0328955
0.178518
-0.0323484
0.169941
-0.031722
0.161726
-0.0310497
0.153857
-0.0302224
0.146279
-0.0292219
0.138999
-0.0280995
0.132095
-0.026865
0.125499
-0.0255291
0.119173
-0.0241871
0.113235
-0.0222398
0.106662
-0.0196261
0.0987846
-0.0151535
0.0863405
-0.00802201
0.0615606
0.0161797
-0.0153163
0.957476
-0.00812523
0.954128
-0.0148698
0.89304
-0.0151547
0.87993
-0.0144125
0.813951
-0.0168101
0.793678
-0.0168547
0.744219
-0.0191122
0.714262
-0.0199909
0.675768
-0.0213596
0.643914
-0.0217936
0.611722
-0.0220912
0.582097
-0.022274
0.554393
-0.0226495
0.528074
-0.0234039
0.502982
-0.0244378
0.478937
-0.0255822
0.455879
-0.0267604
0.43391
-0.0279091
0.41306
-0.0289788
0.393261
-0.029971
0.374442
-0.0309004
0.356515
-0.0317471
0.339472
-0.0325064
0.323255
-0.0331496
0.307741
-0.0336267
0.292892
-0.0339915
0.278761
-0.0343544
0.265402
-0.0347971
0.252759
-0.0352831
0.240646
-0.0356756
0.229021
-0.035972
0.217957
-0.0361172
0.207353
-0.0361428
0.197158
-0.0360113
0.187415
-0.0357408
0.178248
-0.0353839
0.169584
-0.034824
0.161166
-0.0340209
0.153053
-0.033107
0.145365
-0.0321155
0.138007
-0.0310057
0.130985
-0.0297803
0.124273
-0.0285174
0.117911
-0.0269433
0.111661
-0.0247543
0.104473
-0.0215009
0.0955312
-0.0158277
0.0806673
-0.00686413
0.052597
0.00931558
-0.0106351
0.968111
-0.00546904
0.948962
-0.0139549
0.901526
-0.0122235
0.878198
-0.0133472
0.815074
-0.0147449
0.795076
-0.0147197
0.744193
-0.0169164
0.716459
-0.0180375
0.676889
-0.0200457
0.645923
-0.0212717
0.612948
-0.0223726
0.583198
-0.0229849
0.555005
-0.0234466
0.528535
-0.0240952
0.503631
-0.0249199
0.479761
-0.0258145
0.456774
-0.0267365
0.434832
-0.0277402
0.414064
-0.0288674
0.394388
-0.0300657
0.37564
-0.0312498
0.357699
-0.0323832
0.340606
-0.0335224
0.324394
-0.0347405
0.308959
-0.0360214
0.294173
-0.0372294
0.279969
-0.0381807
0.266353
-0.038787
0.253365
-0.0391822
0.241041
-0.0394568
0.229296
-0.0395982
0.218098
-0.039612
0.207367
-0.0394915
0.197037
-0.0392696
0.187193
-0.0389033
0.177881
-0.0383283
0.169009
-0.037688
0.160526
-0.0370092
0.152375
-0.0361588
0.144515
-0.035131
0.136979
-0.0339738
0.129828
-0.0327217
0.123021
-0.0314924
0.116681
-0.029696
0.109864
-0.0272704
0.102048
-0.0231137
0.0913745
-0.0156689
0.0732226
-0.00483835
0.0417664
0.00447723
-0.00728146
0.975393
-0.00522489
0.946905
-0.0127132
0.909015
-0.0101454
0.87563
-0.0128782
0.817807
-0.013505
0.795702
-0.0135201
0.744208
-0.0153692
0.718308
-0.0162699
0.677789
-0.018401
0.648054
-0.0200762
0.614623
-0.0219141
0.585036
-0.0231979
0.556289
-0.0242159
0.529553
-0.0252493
0.504664
-0.0264353
0.480947
-0.0277443
0.458083
-0.0290118
0.4361
-0.0301708
0.415223
-0.0313283
0.395545
-0.0325996
0.376911
-0.0339589
0.359058
-0.0352323
0.341879
-0.0362849
0.325447
-0.0371028
0.309777
-0.0377317
0.294802
-0.0383159
0.280553
-0.0390137
0.267051
-0.039808
0.254159
-0.0404866
0.24172
-0.0410298
0.229839
-0.0414391
0.218507
-0.0417163
0.207644
-0.0418635
0.197184
-0.04181
0.187139
-0.0416103
0.177682
-0.0413409
0.168739
-0.0408408
0.160026
-0.0400869
0.151621
-0.0392375
0.143665
-0.0383036
0.136045
-0.0372494
0.128774
-0.0362144
0.121986
-0.0347941
0.115261
-0.032727
0.107797
-0.0295912
0.0989118
-0.0242795
0.0860628
-0.0154121
0.0643552
-0.00313018
0.0294846
0.00134705
-0.00458695
0.97998
-0.00478194
0.9471
-0.0105153
0.914748
-0.00787941
0.872995
-0.0114139
0.821341
-0.0112569
0.795545
-0.0118711
0.744823
-0.0132635
0.7197
-0.0137047
0.678231
-0.0156771
0.650026
-0.0173964
0.616342
-0.0195454
0.587185
-0.0212693
0.558013
-0.0226521
0.530936
-0.0237532
0.505765
-0.0248578
0.482052
-0.0261915
0.459416
-0.0276612
0.43757
-0.0290573
0.416619
-0.0303328
0.396821
-0.0315915
0.37817
-0.0329846
0.360451
-0.034569
0.343463
-0.0362564
0.327134
-0.0379965
0.311517
-0.0397243
0.29653
-0.0412307
0.28206
-0.0423487
0.268169
-0.0431378
0.254949
-0.0438276
0.24241
-0.0443723
0.230384
-0.0447357
0.218871
-0.0449108
0.20782
-0.0449448
0.197218
-0.0449249
0.187119
-0.0447475
0.177504
-0.0443195
0.168311
-0.0438426
0.159549
-0.0433344
0.151113
-0.0426327
0.142964
-0.0417595
0.135172
-0.040828
0.127842
-0.0398407
0.120999
-0.0382268
0.113647
-0.0359545
0.105525
-0.032091
0.0950483
-0.0253059
0.0792777
-0.0143717
0.053421
-0.00206608
0.0171789
-0.000719025
-0.00289535
0.982875
-0.004784
0.948989
-0.00898082
0.918945
-0.00704136
0.871055
-0.0104348
0.824735
-0.00985469
0.794965
-0.0109495
0.745917
-0.0118832
0.720634
-0.0122336
0.678581
-0.0139386
0.651731
-0.0153231
0.617727
-0.0176058
0.589468
-0.0197558
0.560163
-0.0218062
0.532987
-0.0234071
0.507366
-0.02477
0.483415
-0.0263109
0.460957
-0.0281212
0.43938
-0.0299772
0.418475
-0.0317271
0.398571
-0.0333551
0.379798
-0.0348532
0.36195
-0.0362731
0.344883
-0.0376283
0.328489
-0.0388387
0.312727
-0.039933
0.297624
-0.0410676
0.283194
-0.0423223
0.269424
-0.0435477
0.256174
-0.0445911
0.243453
-0.0454535
0.231247
-0.0461881
0.219605
-0.0468134
0.208445
-0.0472781
0.197683
-0.0474679
0.187309
-0.047521
0.177558
-0.0475387
0.168329
-0.0472855
0.159296
-0.0467562
0.150583
-0.0461511
0.142359
-0.0454659
0.134487
-0.044875
0.127251
-0.0437831
0.119907
-0.0420893
0.111953
-0.0393783
0.102814
-0.0345541
0.0902242
-0.025465
0.0701885
-0.0111269
0.0390829
-0.00139411
0.00744616
-0.00211313
-0.000872501
0.983748
-0.00296804
0.951084
-0.0059416
0.921918
-0.00453025
0.869644
-0.00784331
0.828048
-0.00709927
0.794221
-0.00874094
0.747559
-0.00934646
0.72124
-0.00977803
0.679013
-0.0111634
0.653117
-0.0121229
0.618686
-0.0141638
0.591509
-0.0162135
0.562212
-0.01849
0.535263
-0.0203626
0.509239
-0.021797
0.484849
-0.0232293
0.46239
-0.024978
0.441129
-0.0269665
0.420463
-0.028957
0.400561
-0.0309359
0.381777
-0.0329627
0.363976
-0.0349975
0.346918
-0.0370945
0.330586
-0.0393109
0.314944
-0.0415403
0.299853
-0.0435364
0.28519
-0.0451393
0.271027
-0.0464647
0.257499
-0.0476434
0.244632
-0.0486559
0.232259
-0.0494061
0.220356
-0.0499056
0.208944
-0.0502665
0.198044
-0.050648
0.187691
-0.0508528
0.177762
-0.0507458
0.168222
-0.0506072
0.159157
-0.0504648
0.150441
-0.0501216
0.142015
-0.0497674
0.134133
-0.0491722
0.126656
-0.0479132
0.118648
-0.0459869
0.110027
-0.0424222
0.0992493
-0.0354198
0.0832218
-0.0233314
0.0581001
-0.00696491
0.0227164
-0.000828613
0.00130987
-0.00294174
-0.000286438
0.984034
-0.00250608
0.953304
-0.00449083
0.923903
-0.0039609
0.869114
-0.00648044
0.830568
-0.00559106
0.793332
-0.00737698
0.749345
-0.00764027
0.721503
-0.00831256
0.679685
-0.00940678
0.654211
-0.0101097
0.619389
-0.0119989
0.593398
-0.0138968
0.56411
-0.016543
0.537909
-0.0189705
0.511666
-0.0210194
0.486898
-0.0227541
0.464124
-0.0245563
0.442931
-0.0267178
0.422625
-0.0290216
0.402865
-0.031214
0.383969
-0.0333611
0.366123
-0.0354779
0.349035
-0.0374159
0.332524
-0.0391422
0.31667
-0.0407979
0.301509
-0.042568
0.286961
-0.044479
0.272938
-0.0463517
0.259372
-0.0479829
0.246263
-0.0494061
0.233682
-0.0506917
0.221641
-0.0518566
0.210109
-0.0528008
0.198988
-0.0533604
0.18825
-0.0537847
0.178187
-0.0542411
0.168678
-0.0544291
0.159345
-0.0543197
0.150332
-0.0542135
0.141909
-0.0541346
0.134054
-0.0534186
0.12594
-0.0521796
0.117409
-0.0497445
0.107592
-0.0444132
0.0939179
-0.034023
0.0728316
-0.0170631
0.0411401
-0.00346285
0.00911619
-2.35542e-05
-0.00212943
-0.0029653
0.000982782
0.983051
-0.000150888
0.954438
-0.00178162
0.925534
-0.00150784
0.86884
-0.00358806
0.832648
-0.00286851
0.792612
-0.0048875
0.751364
-0.00489456
0.72151
-0.00585739
0.680648
-0.00667007
0.655023
-0.00708004
0.619799
-0.00838965
0.594707
-0.00970203
0.565423
-0.0119949
0.540202
-0.0144585
0.51413
-0.01692
0.48936
-0.0189955
0.4662
-0.0207969
0.444732
-0.0228451
0.424673
-0.0252803
0.4053
-0.0278281
0.386517
-0.0304097
0.368705
-0.0331554
0.351781
-0.0360706
0.335439
-0.0390616
0.319661
-0.0419707
0.304418
-0.0446246
0.289614
-0.046953
0.275266
-0.0490434
0.261462
-0.0509758
0.248195
-0.0526535
0.23536
-0.0539957
0.222983
-0.0549846
0.211098
-0.0557887
0.199792
-0.0566724
0.189134
-0.0574083
0.178923
-0.0577826
0.169053
-0.0581035
0.159666
-0.0584848
0.150713
-0.0587744
0.142199
-0.0586243
0.133904
-0.057934
0.12525
-0.0562963
0.115771
-0.0523144
0.10361
-0.0439508
0.0855543
-0.0290906
0.0579713
-0.0100164
0.022066
-0.0019113
0.00101108
4.40997e-05
-0.00408483
-0.0029212
0.000842301
0.982209
9.42317e-05
0.955186
-0.000910427
0.926538
-0.000527602
0.868457
-0.00239198
0.834512
-0.00150561
0.791726
-0.00331018
0.753169
-0.00309693
0.721297
-0.00455727
0.682108
-0.00521055
0.655677
-0.00592585
0.620515
-0.00717447
0.595956
-0.00808435
0.566333
-0.0101302
0.542248
-0.0124171
0.516417
-0.015225
0.492168
-0.0178332
0.468808
-0.0200674
0.446966
-0.0222702
0.426876
-0.0247332
0.407763
-0.0273404
0.389124
-0.0299384
0.371303
-0.0325928
0.354435
-0.0352575
0.338104
-0.0378339
0.322237
-0.0404107
0.306995
-0.0430608
0.292265
-0.0457916
0.277997
-0.0484559
0.264127
-0.0509077
0.250647
-0.053157
0.237609
-0.0551925
0.225019
-0.0570657
0.212971
-0.0586414
0.201368
-0.0596784
0.190171
-0.0604596
0.179704
-0.0613416
0.169935
-0.0621031
0.160427
-0.0626424
0.151252
-0.0630556
0.142612
-0.0629617
0.13381
-0.0620523
0.12434
-0.0593557
0.113075
-0.0529803
0.0972347
-0.0402447
0.0728187
-0.0195134
0.03724
-0.00467019
0.00722274
-0.000494841
-0.00316427
0.000335279
-0.00491495
-0.00258592
0.00186867
0.98034
0.00217584
0.954879
0.00107997
0.927634
0.00173304
0.867804
-0.000233839
0.836479
0.00068935
0.790803
-0.00122171
0.75508
-0.000839498
0.720915
-0.00223445
0.683503
-0.00250438
0.655947
-0.00335163
0.621362
-0.00407207
0.596677
-0.00475571
0.567016
-0.00616359
0.543656
-0.00795469
0.518208
-0.0105003
0.494713
-0.0131635
0.471471
-0.0155941
0.449397
-0.0179277
0.429209
-0.0205568
0.410392
-0.0235181
0.392086
-0.0265496
0.374335
-0.0297369
0.357622
-0.0332985
0.341666
-0.0370691
0.326008
-0.04085
0.310776
-0.0445098
0.295924
-0.0478457
0.281333
-0.0509357
0.267217
-0.0538226
0.253534
-0.056432
0.240219
-0.0586766
0.227263
-0.0603971
0.214692
-0.0617443
0.202715
-0.0630939
0.191521
-0.0643529
0.180963
-0.0652334
0.170815
-0.0660285
0.161223
-0.066907
0.152131
-0.0673841
0.143089
-0.0672026
0.133628
-0.0657249
0.122863
-0.0611196
0.108469
-0.0502856
0.0864006
-0.0307844
0.0533175
-0.0103935
0.0168492
-0.00241248
-0.000758305
-0.000217137
-0.00535961
0.000210117
-0.00534221
-0.0023758
0.000831495
0.979509
0.00134992
0.95436
0.00114453
0.92784
0.00198646
0.866962
0.000350461
0.838115
0.00152529
0.789628
-0.000609308
0.757214
0.000183025
0.720122
-0.00159554
0.685282
-0.00183141
0.656183
-0.00293482
0.622465
-0.00371048
0.597452
-0.00437478
0.567681
-0.00555379
0.544835
-0.00691108
0.519565
-0.00925795
0.49706
-0.0119775
0.474191
-0.0146869
0.452106
-0.0170783
0.431601
-0.0195006
0.412815
-0.0223992
0.394984
-0.0255315
0.377467
-0.0285663
0.360657
-0.0316677
0.344767
-0.0349636
0.329304
-0.0383672
0.31418
-0.0420291
0.299586
-0.0459237
0.285227
-0.0497159
0.271009
-0.0532902
0.257108
-0.0565724
0.243501
-0.0595693
0.23026
-0.0623368
0.217459
-0.0647799
0.205158
-0.0665024
0.193243
-0.0676028
0.182063
-0.0686835
0.171896
-0.0698483
0.162387
-0.0707584
0.153041
-0.0712465
0.143577
-0.0707924
0.133174
-0.0677373
0.119808
-0.0592996
0.100032
-0.0426786
0.0697796
-0.0190265
0.0296654
-0.00589601
0.00371869
-0.00199454
-0.00465977
-0.000729205
-0.00662495
-0.000167688
-0.00590373
-0.00254349
0.00125289
0.978256
0.00314594
0.952467
0.00213206
0.928854
0.00344384
0.865651
0.00168991
0.839869
0.002819
0.788499
0.000752489
0.759281
0.00174609
0.719129
-7.70903e-05
0.687105
7.77982e-05
0.656028
-0.000982608
0.623526
-0.00138457
0.597854
-0.00201474
0.568311
-0.00260724
0.545427
-0.0035187
0.520477
-0.00512514
0.498667
-0.00740676
0.476472
-0.0102146
0.454914
-0.0129089
0.434295
-0.0153956
0.415301
-0.0182397
0.397829
-0.0216783
0.380905
-0.0254494
0.364428
-0.0295
0.348818
-0.0339262
0.33373
-0.0384996
0.318753
-0.042941
0.304028
-0.0473312
0.289618
-0.0516805
0.275358
-0.0558406
0.261269
-0.0597461
0.247406
-0.0632408
0.233755
-0.0660818
0.2203
-0.0681984
0.207275
-0.0700488
0.195093
-0.0717882
0.183803
-0.0729937
0.173101
-0.0739394
0.163333
-0.07474
0.153841
-0.0748855
0.143723
-0.0732214
0.13151
-0.0671458
0.113732
-0.0533192
0.086205
-0.0293646
0.0458251
-0.0104895
0.0107903
-0.00423388
-0.00253696
-0.00228366
-0.00660999
-0.00136902
-0.00753959
-0.000651411
-0.00662133
-0.0031949
0.000761995
0.977494
0.00257236
0.950657
0.00124314
0.930183
0.00234105
0.864553
0.000755125
0.841455
0.00152834
0.787726
0.000107955
0.760701
0.000936094
0.7183
-0.000881797
0.688923
-0.000389816
0.655536
-0.00192509
0.625061
-0.00225933
0.598188
-0.00308117
0.569133
-0.00373461
0.546081
-0.00438977
0.521132
-0.00561867
0.499895
-0.00736147
0.478215
-0.00984148
0.457394
-0.0125052
0.436959
-0.0149728
0.417769
-0.0175023
0.400358
-0.0204809
0.383884
-0.0237395
0.367687
-0.0271442
0.352222
-0.0309321
0.337518
-0.0352458
0.323067
-0.0399845
0.308766
-0.0449426
0.294576
-0.0500078
0.280423
-0.0549905
0.266251
-0.0596663
0.252082
-0.063941
0.23803
-0.0679368
0.224296
-0.0715996
0.210937
-0.0743796
0.197873
-0.0759365
0.18536
-0.0770789
0.174244
-0.0778882
0.164142
-0.0780457
0.153999
-0.0771963
0.142873
-0.073151
0.127465
-0.0624512
0.103032
-0.041279
0.0650329
-0.0166774
0.0212234
-0.00589172
4.59867e-06
-0.00210185
-0.00632683
-0.000838733
-0.00787311
-0.000613688
-0.00776464
-0.000520014
-0.00671501
-0.00371492
-0.00110134
0.978595
0.00203995
0.947515
0.00076547
0.931457
0.00220437
0.863114
0.00110366
0.842556
0.00203448
0.786795
0.000481362
0.762254
0.00100572
0.717776
-0.000203842
0.690132
-3.42159e-05
0.655366
-0.00114472
0.626171
-0.000963536
0.598007
-0.00159216
0.569761
-0.00183747
0.546326
-0.00223638
0.521531
-0.00289327
0.500552
-0.00407808
0.4794
-0.00614339
0.459459
-0.00872545
0.439541
-0.0113352
0.420379
-0.0139333
0.402956
-0.0171063
0.387057
-0.0210251
0.371606
-0.0253238
0.356521
-0.0299446
0.342139
-0.034893
0.328015
-0.0401055
0.313979
-0.0455984
0.300069
-0.0512425
0.286067
-0.0569246
0.271933
-0.0624757
0.257633
-0.0676326
0.243187
-0.0720606
0.228724
-0.0753303
0.214207
-0.0780426
0.200586
-0.0804189
0.187736
-0.0818693
0.175694
-0.0821299
0.164403
-0.0808229
0.152692
-0.077257
0.139307
-0.0690588
0.119267
-0.0522491
0.0862225
-0.0246338
0.0374176
-0.00567257
0.00226218
0.00232223
-0.0079902
0.00492076
-0.00892536
0.00491133
-0.00786368
0.00319835
-0.00605165
0.00106623
-0.00458289
-0.00264868
-0.000884749
0.97948
0.00105802
0.945573
-0.000354164
0.932869
0.000368421
0.862391
-0.000691958
0.843616
-0.000235169
0.786338
-0.00126644
0.763285
-0.00080378
0.717313
-0.0021277
0.691456
-0.00161205
0.65485
-0.0027345
0.627294
-0.00292372
0.598196
-0.00387268
0.57071
-0.00412462
0.546578
-0.00446018
0.521866
-0.00480914
0.500901
-0.00537484
0.479966
-0.00665881
0.460743
-0.00867683
0.441559
-0.0110217
0.422724
-0.0131421
0.405076
-0.0153
0.389215
-0.0180795
0.374385
-0.0214928
0.359934
-0.0254865
0.346132
-0.030259
0.332788
-0.0357162
0.319436
-0.041672
0.306025
-0.0480096
0.292405
-0.0545069
0.278431
-0.0609241
0.26405
-0.0670312
0.249294
-0.0727635
0.234457
-0.0780447
0.219488
-0.0823776
0.204919
-0.0851434
0.190502
-0.0862443
0.176795
-0.0856466
0.163805
-0.0823805
0.149426
-0.0749329
0.13186
-0.0592299
0.103564
-0.0339516
0.0609442
-0.00438191
0.00784798
0.00928506
-0.0114048
0.0143522
-0.0130574
0.0151976
-0.00977068
0.0129536
-0.00561978
0.00870257
-0.00180058
0.00359745
0.000522231
0.000948767
-0.00269019
0.98217
0.000327802
0.942555
-0.00148632
0.934684
-0.000418441
0.861323
-0.0019528
0.84515
-0.00142679
0.785812
-0.00261823
0.764477
-0.00209476
0.71679
-0.00279522
0.692157
-0.0025755
0.654631
-0.0032335
0.627952
-0.00270498
0.597668
-0.00322288
0.571228
-0.00321427
0.546569
-0.00340943
0.522061
-0.00355211
0.501044
-0.00379243
0.480206
-0.00453411
0.461485
-0.006068
0.443093
-0.00836288
0.425018
-0.0109085
0.407622
-0.013574
0.39188
-0.0167082
0.377519
-0.0204149
0.363641
-0.0246406
0.350358
-0.0294853
0.337632
-0.0350063
0.324957
-0.0412195
0.312238
-0.0480626
0.299248
-0.0553598
0.285728
-0.0628718
0.271562
-0.0702225
0.256644
-0.0768736
0.241108
-0.0822189
0.224834
-0.0862996
0.208999
-0.0896909
0.193893
-0.0915672
0.178671
-0.0898644
0.162102
-0.0833832
0.142945
-0.0680848
0.116561
-0.0439784
0.0794574
-0.00827719
0.025243
0.0144541
-0.0148833
0.0206926
-0.0176433
0.0215765
-0.0139412
0.0200918
-0.00828598
0.0162343
-0.00176225
0.0105503
0.0038834
0.00444417
0.00662835
0.00539294
-0.00535479
0.987525
-0.00140848
0.938608
-0.00359465
0.93687
-0.00301281
0.860741
-0.00403877
0.846176
-0.00381763
0.785591
-0.00473085
0.76539
-0.0045117
0.716571
-0.00543911
0.693084
-0.00501332
0.654205
-0.00587905
0.628818
-0.00605296
0.597842
-0.00673357
0.571909
-0.00669306
0.546529
-0.00695124
0.52232
-0.00679014
0.500883
-0.00664957
0.480065
-0.00665636
0.461492
-0.00719214
0.443629
-0.00844061
0.426267
-0.00993398
0.409115
-0.0114159
0.393362
-0.013463
0.379567
-0.0163893
0.366567
-0.0198921
0.353861
-0.024141
0.341881
-0.0294824
0.330298
-0.035903
0.318658
-0.0432316
0.306576
-0.0511933
0.29369
-0.0595173
0.279886
-0.0679331
0.26506
-0.0762188
0.249393
-0.0843182
0.232933
-0.0906816
0.215363
-0.0950067
0.198218
-0.0965266
0.180191
-0.0924769
0.158053
-0.0809345
0.131402
-0.0580759
0.0937026
-0.0205338
0.0419153
0.0117749
-0.00706565
0.0208575
-0.0239659
0.0233893
-0.0201752
0.0224213
-0.0129732
0.0194589
-0.00532363
0.0152678
0.00242887
0.00979168
0.0093595
0.00398237
0.0124377
0.0093753
-0.00645515
0.99398
-0.00294843
0.935102
-0.00389375
0.937815
-0.00484584
0.861693
-0.00453312
0.845864
-0.00553788
0.786596
-0.00575176
0.765604
-0.00636223
0.717181
-0.00683949
0.693561
-0.00669233
0.654058
-0.00701194
0.629137
-0.00634502
0.597175
-0.00677473
0.572338
-0.00658556
0.54634
-0.0067407
0.522475
-0.00668818
0.50083
-0.00652263
0.4799
-0.00639246
0.461362
-0.00670144
0.443937
-0.00787452
0.42744
-0.00976858
0.41101
-0.0116099
0.395204
-0.013339
0.381296
-0.0158439
0.369072
-0.0193478
0.357365
-0.023515
0.346049
-0.0284746
0.335258
-0.0345988
0.324783
-0.0420849
0.314063
-0.0507858
0.302391
-0.0603128
0.289413
-0.0703357
0.275083
-0.0804153