/*--------------------------------*- C++ -*----------------------------------*\
| =========                 |                                                 |
| \\      /  F ield         | OpenFOAM: The Open Source CFD Toolbox           |
|  \\    /   O peration     | Version:  v1912                                 |
|   \\  /    A nd           | Website:  www.openfoam.com                      |
|    \\/     M anipulation  |                                                 |
\*---------------------------------------------------------------------------*/
FoamFile
{
    version     2.0;
    format      ascii;
    class       volVectorField;
    location    "0.04";
    object      U;
}
// * * * * * * * * * * * * * * * * * * * * * * * * * * * * * * * * * * * * * //

dimensions      [0 1 -1 0 0 0 0];


internalField   nonuniform List<vector> 
6600
(
(39.8488 -0.0512762 0)
(40.0848 -0.0689262 1.59576e-20)
(40.1443 -0.00924328 1.11258e-18)
(40.1775 0.0754646 0)
(40.2081 0.161749 1.36961e-18)
(40.2443 0.259795 4.64504e-20)
(40.2835 0.356766 -5.15907e-20)
(40.3209 0.470467 -5.73581e-20)
(40.3647 0.593785 1.16805e-18)
(40.4106 0.714068 -1.24656e-19)
(40.4542 0.836343 0)
(40.4921 0.954384 -1.44484e-18)
(40.5177 1.0929 0)
(40.5372 1.26622 -1.6145e-18)
(40.5527 1.46765 -2.20101e-18)
(40.5646 1.70016 -1.17721e-18)
(40.569 1.95501 0)
(40.5627 2.22765 0)
(40.5485 2.51243 1.94234e-18)
(40.5239 2.80963 -1.8003e-18)
(40.48 3.12363 -2.66221e-19)
(40.4129 3.45621 -9.81688e-19)
(40.3298 3.81345 -1.82859e-18)
(40.2509 4.1851 4.06283e-19)
(40.18 4.57567 1.49147e-18)
(40.098 5.00334 0)
(39.9905 5.48364 3.64763e-18)
(39.8936 6.01112 0)
(39.8163 6.60108 -1.79097e-18)
(39.745 7.25547 -1.14584e-18)
(39.5981 7.9739 -3.51375e-19)
(39.436 8.71957 -1.38954e-18)
(39.3043 9.51181 -5.94321e-19)
(39.1017 10.3373 1.14301e-18)
(38.8939 11.2158 3.85078e-19)
(38.7786 12.1876 1.26239e-18)
(38.6651 13.2473 2.58178e-18)
(38.5217 14.3839 2.30357e-18)
(38.436 15.6072 -1.64011e-18)
(38.3129 16.9142 1.67329e-18)
(38.149 18.3054 8.14135e-19)
(38.0857 19.847 0)
(38.0657 21.4814 1.96762e-19)
(38.0609 23.2297 -3.15338e-19)
(38.0708 25.0401 0)
(38.1631 27.0417 -1.71213e-18)
(38.2026 28.9958 -4.17085e-18)
(38.6417 31.4003 0)
(37.1089 32.6232 0)
(27.4013 26.1603 -2.60577e-18)
(39.7069 -0.0267906 9.36404e-19)
(40.1492 -0.106653 -9.85973e-19)
(40.1934 0.00582859 0)
(40.2246 0.0904979 -1.86892e-20)
(40.2629 0.191761 1.31272e-18)
(40.3121 0.296355 4.51394e-20)
(40.3492 0.399544 -2.8069e-22)
(40.4069 0.515295 -5.53803e-20)
(40.4613 0.64695 0)
(40.507 0.769411 -2.09768e-18)
(40.5627 0.885275 -7.53718e-20)
(40.6096 1.01872 1.30522e-18)
(40.6447 1.18779 1.3646e-18)
(40.6733 1.3952 9.31847e-19)
(40.6942 1.62999 -1.48933e-21)
(40.7129 1.88835 1.33489e-19)
(40.7233 2.16149 -1.15869e-18)
(40.7211 2.45128 0)
(40.7115 2.75592 0)
(40.7017 3.07624 1.83444e-18)
(40.6947 3.41227 2.49846e-19)
(40.6824 3.76941 -1.33378e-18)
(40.6447 4.15421 -1.19099e-18)
(40.5756 4.57387 -1.34188e-18)
(40.5088 5.01703 -1.09992e-18)
(40.4593 5.48184 -4.55988e-19)
(40.3914 5.98326 -6.00393e-19)
(40.2937 6.51422 -5.79753e-19)
(40.1759 7.07143 1.7554e-18)
(40.0652 7.65129 3.08093e-19)
(39.9539 8.28974 -2.18533e-18)
(39.8372 8.99199 1.97483e-18)
(39.7454 9.77237 1.26334e-18)
(39.7435 10.6698 -1.68076e-18)
(39.7132 11.6076 4.14003e-19)
(39.6231 12.6098 -1.29116e-18)
(39.5582 13.6649 6.89342e-19)
(39.5078 14.8 -8.78017e-19)
(39.4742 16.0276 -2.81819e-19)
(39.4835 17.3236 -2.67232e-19)
(39.492 18.698 0)
(39.5305 20.1732 0)
(39.6465 21.7363 6.85016e-19)
(39.827 23.4221 -8.44828e-19)
(40.0319 25.1611 -3.03969e-18)
(40.2884 27.0644 1.76799e-18)
(40.5826 28.9568 6.19171e-18)
(41.2268 31.1843 0)
(39.7764 31.9587 -6.48088e-18)
(28.692 25.0769 2.88702e-18)
(39.6426 -0.0263644 -5.31621e-20)
(40.2464 -0.06787 1.00478e-18)
(40.2665 0.0336672 1.04245e-18)
(40.2979 0.100369 -3.2434e-22)
(40.3575 0.199666 -1.25724e-19)
(40.3994 0.303713 4.37174e-20)
(40.4636 0.414028 0)
(40.5374 0.534248 0)
(40.5797 0.646907 0)
(40.6351 0.769339 1.12358e-18)
(40.6785 0.913957 -7.13861e-20)
(40.7285 1.08799 -1.31394e-18)
(40.7764 1.29859 -7.00259e-19)
(40.8209 1.5358 1.48384e-18)
(40.8575 1.79478 8.47146e-19)
(40.8887 2.0663 -1.24825e-19)
(40.9105 2.34328 2.36541e-18)
(40.9247 2.62659 -1.18318e-18)
(40.9276 2.92042 -1.32433e-18)
(40.9143 3.23091 0)
(40.8881 3.55885 -8.30599e-19)
(40.8575 3.9068 1.06791e-18)
(40.8396 4.27628 1.20468e-18)
(40.814 4.67756 1.35812e-18)
(40.7745 5.11784 1.17557e-18)
(40.7468 5.59142 -1.19666e-19)
(40.724 6.10532 -2.19144e-19)
(40.7142 6.67756 -6.10942e-19)
(40.71 7.31359 -2.67489e-19)
(40.7124 8.00587 1.03095e-18)
(40.6636 8.74725 3.14404e-19)
(40.6002 9.52276 0)
(40.5377 10.3034 -1.32783e-18)
(40.432 11.1149 3.06865e-19)
(40.3906 12.0164 6.19736e-19)
(40.4451 13.0004 5.63036e-19)
(40.487 14.055 -5.82084e-19)
(40.5297 15.1567 -1.3662e-19)
(40.6426 16.3418 4.88276e-19)
(40.747 17.604 0)
(40.8496 18.927 1.16358e-18)
(41.0638 20.3672 0)
(41.3541 21.8664 0)
(41.6942 23.4534 3.09816e-18)
(42.0939 25.0915 1.85274e-18)
(42.5925 26.8899 -3.49522e-18)
(43.1015 28.7031 -3.67388e-18)
(43.7747 30.6328 0)
(42.1624 30.9677 -3.99003e-18)
(29.6147 23.626 4.32957e-18)
(39.6512 -0.0628236 -8.67802e-19)
(40.3237 -0.103187 7.20754e-21)
(40.3527 -0.0196226 -1.06714e-18)
(40.4424 0.0599506 -1.04068e-18)
(40.5388 0.149138 -1.21715e-18)
(40.5761 0.266865 -6.07651e-19)
(40.6257 0.392775 -4.50935e-20)
(40.6724 0.506361 0)
(40.735 0.627913 8.32712e-19)
(40.7853 0.780007 9.77437e-19)
(40.8431 0.967464 -6.66122e-20)
(40.8912 1.19249 -7.37124e-20)
(40.9344 1.43826 -6.03081e-19)
(40.9784 1.69485 -1.66435e-19)
(41.0181 1.96383 1.28168e-20)
(41.0485 2.24351 -1.1319e-19)
(41.0688 2.53331 2.03218e-21)
(41.0922 2.83031 1.3342e-18)
(41.1211 3.13885 1.75964e-18)
(41.149 3.4653 0)
(41.173 3.8136 1.28645e-19)
(41.1831 4.19013 0)
(41.1718 4.59365 0)
(41.1602 5.02818 -2.64796e-19)
(41.1447 5.4952 8.0883e-19)
(41.1459 5.99458 8.77714e-19)
(41.1426 6.51959 -1.75949e-19)
(41.1112 7.06707 8.64021e-19)
(41.0666 7.6368 0)
(41.0568 8.23605 0)
(41.0861 8.8956 2.96535e-19)
(41.0794 9.63952 0)
(41.1152 10.4762 3.66842e-19)
(41.2316 11.3717 2.7893e-19)
(41.3235 12.286 -5.2113e-19)
(41.3832 13.2705 -1.81947e-19)
(41.5129 14.3052 -6.70517e-19)
(41.6509 15.4089 2.68846e-19)
(41.8201 16.5746 4.06084e-19)
(42.0818 17.7976 4.75903e-19)
(42.3619 19.0824 -3.14117e-18)
(42.6741 20.4359 0)
(43.0911 21.8504 0)
(43.5957 23.3388 -1.90514e-18)
(44.1525 24.8489 -3.37186e-18)
(44.7764 26.4853 -8.43123e-19)
(45.4941 28.2138 -5.76169e-18)
(46.2027 29.8691 6.36487e-18)
(44.3244 29.7446 8.84966e-18)
(30.1242 21.8766 0)
(39.7617 -0.367359 -3.10998e-21)
(40.4896 -0.333224 8.34671e-19)
(40.5737 -0.158933 8.92505e-19)
(40.7046 -0.0918709 1.07995e-18)
(40.7547 0.0732153 0)
(40.7894 0.206452 5.6858e-20)
(40.8128 0.332028 0)
(40.8397 0.466489 -4.52113e-20)
(40.8971 0.641783 -1.54292e-18)
(40.9711 0.854036 -9.77125e-19)
(41.0347 1.09089 6.08613e-20)
(41.085 1.3448 6.65984e-20)
(41.1289 1.60175 -7.41169e-20)
(41.1739 1.86372 -6.93858e-19)
(41.2189 2.12469 -1.52831e-18)
(41.2592 2.38826 1.0019e-19)
(41.291 2.66151 -1.7567e-18)
(41.3198 2.94545 1.21245e-19)
(41.3478 3.24576 -5.86179e-19)
(41.3678 3.5642 -2.95364e-19)
(41.3801 3.90344 8.80944e-19)
(41.4098 4.26327 0)
(41.4421 4.64687 0)
(41.4681 5.06589 -3.48442e-19)
(41.4829 5.5253 -5.20261e-19)
(41.509 6.025 4.85964e-19)
(41.5826 6.57526 -1.27034e-19)
(41.6705 7.18772 0)
(41.7605 7.857 1.09307e-19)
(41.8212 8.57439 -1.21627e-19)
(41.8898 9.3136 -3.01387e-19)
(41.964 10.0743 4.29626e-21)
(41.9784 10.8305 3.67771e-20)
(42.0003 11.6611 1.12446e-19)
(42.1351 12.5563 -1.25126e-19)
(42.3627 13.5117 0)
(42.5834 14.5317 3.48093e-19)
(42.8279 15.5721 2.01621e-18)
(43.1427 16.6816 -1.06536e-18)
(43.4648 17.841 -1.38866e-18)
(43.8259 19.0367 1.99634e-18)
(44.3078 20.3188 0)
(44.8795 21.6362 0)
(45.5131 23.0009 -3.20085e-18)
(46.228 24.3734 7.01767e-18)
(47.0401 25.8637 1.88269e-18)
(47.87 27.4652 3.47886e-18)
(48.4079 28.7683 -7.60756e-18)
(45.9793 28.1948 6.27747e-19)
(30.1426 19.8358 -1.19386e-17)
(39.4245 -1.09203 7.38665e-19)
(40.9199 -0.414717 -9.14114e-20)
(40.796 -0.259314 -9.12368e-19)
(40.9896 -0.112855 4.27952e-19)
(40.9611 0.080545 0)
(40.9753 0.179751 5.93221e-19)
(41.0086 0.327434 -1.87447e-20)
(41.0336 0.530146 -6.09718e-19)
(41.0968 0.7503 7.59823e-19)
(41.1609 1.00919 0)
(41.2108 1.26099 5.34477e-20)
(41.2633 1.50716 3.74949e-19)
(41.3121 1.76757 -5.37899e-19)
(41.3621 2.02953 7.13771e-20)
(41.4081 2.29155 7.49037e-19)
(41.455 2.55784 -8.51881e-20)
(41.5023 2.83231 5.79148e-19)
(41.5519 3.12097 -1.01123e-19)
(41.6134 3.43071 1.06445e-19)
(41.6871 3.76226 2.73124e-19)
(41.7556 4.13048 3.48766e-19)
(41.8004 4.52774 3.8371e-21)
(41.8536 4.95484 1.3717e-19)
(41.9111 5.40185 4.84327e-19)
(41.9633 5.87594 0)
(42.0032 6.3807 -3.76416e-19)
(42.0522 6.90248 5.4104e-20)
(42.1037 7.45069 -2.02438e-20)
(42.1603 8.0253 -9.44146e-20)
(42.2768 8.64625 1.97608e-20)
(42.4031 9.31963 2.174e-19)
(42.5228 10.0676 -3.79419e-20)
(42.7296 10.9042 0)
(42.9572 11.761 0)
(43.1676 12.6434 0)
(43.3919 13.5721 0)
(43.7131 14.5455 1.68949e-18)
(44.0438 15.5833 -3.23807e-18)
(44.4169 16.6489 0)
(44.9023 17.7497 4.14813e-20)
(45.416 18.8822 -3.23212e-19)
(45.965 20.0491 -4.69438e-18)
(46.617 21.248 2.5914e-18)
(47.3625 22.4816 0)
(48.1664 23.6979 2.53411e-18)
(49.0295 25.0023 -9.19333e-18)
(49.9561 26.4684 6.56157e-18)
(50.3769 27.479 4.86494e-18)
(47.2892 26.4273 1.78811e-17)
(29.5763 17.513 -1.34008e-17)
(38.2869 -1.19806 -7.4031e-19)
(41.5783 -0.121727 -1.40895e-18)
(40.861 -0.258716 1.16374e-20)
(41.2369 0.0265204 -4.298e-19)
(41.0446 0.161507 4.12209e-19)
(41.1643 0.326879 -1.475e-20)
(41.1753 0.527119 5.02184e-19)
(41.2271 0.752023 6.12157e-19)
(41.3101 0.986086 5.8515e-19)
(41.3581 1.22981 -2.12326e-20)
(41.4068 1.44324 -3.29694e-19)
(41.4575 1.6691 -8.19567e-20)
(41.5183 1.90325 4.76349e-19)
(41.5824 2.1379 0)
(41.642 2.38403 0)
(41.7074 2.63985 3.25309e-20)
(41.7746 2.90714 5.24907e-19)
(41.834 3.19151 0)
(41.8848 3.49524 3.72196e-20)
(41.9421 3.80959 -4.36413e-19)
(42.0231 4.14177 -3.74764e-19)
(42.1127 4.50448 5.52782e-20)
(42.1981 4.90805 0)
(42.2907 5.34951 -2.0808e-19)
(42.3975 5.83119 -1.77473e-20)
(42.5136 6.35497 1.97981e-20)
(42.6612 6.91947 0)
(42.842 7.53601 0)
(43.0195 8.20982 -1.20936e-19)
(43.1712 8.92097 2.62226e-19)
(43.3608 9.6396 -4.34513e-19)
(43.5547 10.365 2.39046e-19)
(43.6808 11.0981 4.44563e-19)
(43.8289 11.9029 -1.1138e-18)
(44.1228 12.7439 2.02252e-18)
(44.5122 13.6332 7.38788e-19)
(44.8972 14.5631 -1.17614e-18)
(45.3177 15.4883 1.59341e-18)
(45.8057 16.4722 -2.67412e-18)
(46.3025 17.4835 5.66175e-20)
(46.8611 18.5033 -3.84126e-19)
(47.5373 19.5703 2.41625e-18)
(48.3027 20.6477 3.63779e-18)
(49.1272 21.7377 -4.0412e-18)
(50.0316 22.8044 2.55521e-18)
(51.015 23.9607 0)
(51.9357 25.2543 3.97501e-18)
(51.9697 25.8711 5.96013e-18)
(47.8478 24.347 -1.23966e-17)
(28.3084 14.9484 -3.86602e-18)
(37.247 -0.607429 5.92134e-19)
(41.9324 0.195448 6.52377e-19)
(40.8095 -0.203067 5.2653e-21)
(41.4455 0.19671 -3.25012e-19)
(41.0381 0.323778 -8.04399e-19)
(41.2855 0.536593 3.96617e-19)
(41.2661 0.792912 -9.20919e-19)
(41.3727 0.991009 2.21812e-19)
(41.4637 1.21555 -5.68237e-19)
(41.5356 1.41571 -2.63793e-19)
(41.6067 1.61762 6.25706e-19)
(41.6761 1.82804 -3.95283e-19)
(41.7443 2.0405 -2.73854e-19)
(41.8042 2.25968 1.31604e-21)
(41.8654 2.4915 -1.17752e-19)
(41.9404 2.73801 1.3871e-19)
(42.0354 3.00524 -2.36152e-19)
(42.1479 3.29922 0)
(42.2644 3.62608 0)
(42.3757 3.98103 0)
(42.4843 4.35618 -1.1554e-20)
(42.5985 4.74952 -8.54415e-20)
(42.7129 5.16794 7.17342e-20)
(42.8329 5.61393 5.24025e-21)
(42.9557 6.08968 0)
(43.073 6.59799 0)
(43.1942 7.12185 -2.42026e-19)
(43.3261 7.65192 1.39827e-19)
(43.5033 8.20593 -1.12387e-19)
(43.7054 8.80905 1.33945e-19)
(43.9334 9.47918 6.91902e-20)
(44.2077 10.2175 6.89107e-19)
(44.5511 10.9983 -3.38737e-19)
(44.9039 11.7856 1.32872e-18)
(45.2195 12.604 -9.25349e-19)
(45.5805 13.4409 -4.64266e-19)
(46.0571 14.3161 1.95596e-19)
(46.5461 15.2403 1.13173e-18)
(47.0694 16.1541 1.16494e-18)
(47.7084 17.0784 1.82665e-18)
(48.3768 18.0134 -3.65191e-19)
(49.0823 18.9586 3.34808e-18)
(49.871 19.9038 -3.72415e-18)
(50.7434 20.8499 0)
(51.6679 21.7581 0)
(52.6559 22.7759 0)
(53.4424 23.7725 0)
(53.2141 24.1515 0)
(47.923 22.128 -7.22249e-18)
(26.2459 12.2063 1.1852e-17)
(36.8915 0.242097 -5.93292e-19)
(41.9662 0.341237 0)
(40.5632 0.162859 0)
(41.7022 0.360228 3.30632e-19)
(41.075 0.620934 3.72593e-19)
(41.4366 0.733296 -3.95676e-19)
(41.3324 0.994009 4.31912e-19)
(41.4886 1.16079 -2.22518e-19)
(41.575 1.3316 1.80116e-19)
(41.6642 1.50851 2.6084e-19)
(41.7868 1.69602 -2.60178e-19)
(41.909 1.88108 1.6386e-19)
(42.0089 2.09177 3.60404e-19)
(42.0981 2.30796 0)
(42.1837 2.52879 1.41845e-19)
(42.266 2.76234 -1.49374e-19)
(42.3535 3.01145 3.41273e-21)
(42.4531 3.27947 2.37011e-20)
(42.5646 3.57301 -6.26974e-20)
(42.6887 3.89572 0)
(42.8354 4.24868 0)
(42.9957 4.62741 -1.67039e-19)
(43.1586 5.0388 1.64883e-19)
(43.3264 5.48137 3.38496e-19)
(43.5098 5.95215 9.58212e-20)
(43.7113 6.46856 -4.16581e-19)
(43.9459 7.04535 6.54787e-19)
(44.221 7.66842 -7.81078e-19)
(44.4829 8.32155 4.28954e-19)
(44.7456 8.98654 -3.88073e-19)
(45.0382 9.64801 2.34342e-19)
(45.3039 10.3154 -7.66943e-19)
(45.558 11.0042 5.67081e-19)
(45.8209 11.7424 -9.6391e-19)
(46.2361 12.493 0)
(46.748 13.2818 -9.6388e-19)
(47.2538 14.0805 -9.99422e-19)
(47.7947 14.8559 2.20427e-19)
(48.3983 15.6837 2.18099e-18)
(49.0019 16.5198 -2.17237e-18)
(49.6721 17.3344 -3.37139e-19)
(50.4465 18.1628 -3.80995e-18)
(51.3024 18.9817 8.96717e-18)
(52.2074 19.7829 5.81218e-19)
(53.1847 20.553 6.9566e-19)
(54.2457 21.4687 -3.5958e-18)
(54.8178 22.1304 0)
(53.9031 22.2366 6.47974e-18)
(46.9406 19.6464 -3.4285e-18)
(23.3058 9.39267 0)
(37.2157 0.997678 1.58418e-21)
(41.9448 0.324441 -8.87861e-24)
(40.2879 0.673837 -2.50743e-19)
(41.9955 0.515755 0)
(41.1468 0.88369 -4.06286e-21)
(41.7528 0.847169 -1.03146e-19)
(41.4821 1.16016 0)
(41.6841 1.25863 1.16447e-19)
(41.7046 1.41066 -1.89627e-19)
(41.7921 1.57911 1.00041e-20)
(41.934 1.71366 1.00059e-19)
(42.0671 1.87864 -1.29875e-19)
(42.1917 2.08355 -9.28359e-20)
(42.3233 2.29948 0)
(42.4517 2.53695 0)
(42.5821 2.79483 0)
(42.7268 3.06586 9.4941e-20)
(42.8836 3.35197 -2.51031e-20)
(43.0436 3.65888 2.05683e-19)
(43.1956 3.99496 -3.39331e-20)
(43.3514 4.36343 8.61687e-20)
(43.5305 4.75647 1.14184e-19)
(43.7307 5.17615 -6.60562e-19)
(43.9297 5.62553 -6.14551e-19)
(44.1274 6.09489 0)
(44.3184 6.56749 4.16442e-19)
(44.5086 7.04997 -1.11828e-18)
(44.7207 7.55317 7.18527e-19)
(44.9981 8.08685 -4.17108e-19)
(45.292 8.67354 2.48985e-19)
(45.6076 9.30893 -3.62508e-19)
(46.0095 9.98246 1.36212e-18)
(46.4701 10.6851 -1.55719e-18)
(46.9295 11.3929 2.15436e-18)
(47.325 12.1222 9.22153e-19)
(47.7721 12.8424 -2.18588e-18)
(48.3486 13.5967 2.74742e-18)
(48.9332 14.3792 -1.8031e-18)
(49.534 15.1133 2.5123e-20)
(50.2451 15.8358 0)
(50.9803 16.5629 3.08896e-18)
(51.7544 17.2842 2.11213e-18)
(52.5881 17.9801 2.39531e-19)
(53.4881 18.6488 -6.05684e-18)
(54.4318 19.281 -2.35526e-19)
(55.3926 20.0384 -4.19744e-18)
(55.6101 20.3934 0)
(54.0479 20.2152 6.78554e-18)
(45.3318 17.1303 -1.1377e-17)
(19.4239 6.5833 0)
(37.9779 1.57522 0)
(41.9534 0.0464032 0)
(40.2269 0.964019 1.55473e-19)
(42.2609 0.512774 -5.81836e-21)
(41.1645 0.996314 9.55854e-20)
(42.0947 0.809062 1.07873e-19)
(41.6784 1.21165 0)
(41.9808 1.22356 -1.1667e-19)
(41.9133 1.43783 5.1082e-20)
(42.0303 1.5875 0)
(42.1517 1.69603 -1.03801e-19)
(42.2753 1.84975 -5.36825e-20)
(42.4314 2.00404 1.4551e-21)
(42.5898 2.17917 -1.62235e-21)
(42.7286 2.4033 0)
(42.869 2.65775 0)
(43.0254 2.92681 -4.43299e-21)
(43.1977 3.20972 -1.41084e-19)
(43.3904 3.50234 8.71957e-20)
(43.5943 3.80846 -3.09856e-20)
(43.795 4.1422 7.53706e-20)
(43.9983 4.50857 -4.55352e-20)
(44.2291 4.90413 4.19407e-19)
(44.4825 5.33493 1.87119e-19)
(44.7532 5.8121 -3.85227e-19)
(45.0473 6.33189 -6.10918e-19)
(45.3585 6.88942 4.10469e-19)
(45.7108 7.4781 6.83863e-19)
(46.0591 8.08597 0)
(46.4123 8.6816 0)
(46.7803 9.27984 0)
(47.117 9.88393 -9.65767e-19)
(47.4435 10.502 -7.01942e-19)
(47.7855 11.1427 -7.35622e-19)
(48.2807 11.7859 1.09392e-18)
(48.8702 12.4594 1.34761e-18)
(49.4403 13.1179 -6.44528e-19)
(50.0424 13.7393 1.94341e-18)
(50.6987 14.4096 -1.13803e-18)
(51.341 15.0711 -1.51913e-18)
(52.0412 15.6815 -1.87895e-18)
(52.8259 16.2823 2.0951e-18)
(53.6783 16.8585 0)
(54.5717 17.3992 3.37681e-18)
(55.5723 17.9622 -1.857e-18)
(56.3196 18.4577 2.30374e-18)
(56.2836 18.6115 0)
(53.4633 18.0697 -3.40405e-18)
(42.2137 14.326 1.99367e-18)
(14.498 3.84186 0)
(38.798 2.00258 6.49632e-20)
(41.8302 -0.70337 0)
(40.4214 1.24373 1.68861e-19)
(42.4385 0.248292 -2.94033e-20)
(41.1603 1.06387 -9.26106e-20)
(42.3503 0.640539 1.46043e-21)
(41.7986 1.15499 -1.62515e-21)
(42.2476 1.0549 0)
(42.1199 1.37488 -5.10003e-20)
(42.2823 1.4944 -2.20484e-20)
(42.3541 1.66299 3.47232e-21)
(42.4816 1.83766 1.4883e-20)
(42.6689 1.96673 -4.89254e-20)
(42.8528 2.12538 -1.29112e-20)
(43.0269 2.32589 8.17619e-21)
(43.2079 2.5589 0)
(43.4001 2.82581 -1.30595e-19)
(43.609 3.12392 1.76548e-19)
(43.8367 3.44661 5.12217e-20)
(44.0806 3.78858 -6.38284e-21)
(44.3323 4.14628 5.01398e-20)
(44.5787 4.52217 0)
(44.8296 4.91549 9.26252e-20)
(45.0926 5.32643 3.87666e-19)
(45.3579 5.75706 4.86231e-19)
(45.6303 6.20132 6.14218e-19)
(45.9076 6.65411 0)
(46.1833 7.11635 -4.83947e-19)
(46.5286 7.61393 -1.07309e-18)
(46.8956 8.17439 6.09258e-19)
(47.2971 8.75563 -1.34106e-18)
(47.7749 9.35995 -6.74441e-19)
(48.3198 9.97454 1.23558e-18)
(48.8523 10.5941 -4.56636e-19)
(49.2928 11.2246 -1.10344e-18)
(49.7756 11.8272 -6.04811e-19)
(50.3931 12.4535 -8.29199e-19)
(51.0103 13.0958 0)
(51.6202 13.6597 -1.37073e-18)
(52.3307 14.1976 3.04213e-18)
(53.0588 14.7403 1.89354e-18)
(53.824 15.2602 -2.24998e-18)
(54.6302 15.7376 2.93858e-18)
(55.4909 16.1844 -1.54613e-18)
(56.416 16.6451 3.87731e-18)
(56.7572 16.8529 3.25501e-20)
(56.14 16.7619 0)
(51.9401 15.7381 7.00719e-18)
(38.367 11.4684 -5.97471e-18)
(8.71639 1.23038 -2.21881e-18)
(39.4602 2.1972 -6.50211e-20)
(41.6049 -1.23143 1.41785e-20)
(40.8627 1.52931 -7.19511e-20)
(42.5035 -0.142373 2.90022e-20)
(41.2257 1.12217 1.66758e-20)
(42.5397 0.397882 5.89124e-22)
(41.8887 1.05998 -1.69368e-22)
(42.5003 0.796109 0)
(42.3265 1.20237 -3.11028e-20)
(42.5542 1.24274 4.84165e-20)
(42.5948 1.48672 0)
(42.7459 1.66464 -6.72755e-21)
(42.9342 1.81573 -1.41384e-20)
(43.1332 1.98817 9.86217e-20)
(43.344 2.1599 -1.60356e-19)
(43.5389 2.35407 -3.08688e-21)
(43.718 2.58149 2.40954e-20)
(43.9169 2.82843 0)
(44.157 3.09526 -1.03636e-19)
(44.4328 3.39594 2.72521e-19)
(44.7306 3.73543 -3.24703e-20)
(45.0364 4.10598 0)
(45.3496 4.49646 0)
(45.6753 4.90623 -1.94106e-19)
(46.0149 5.35082 8.93948e-20)
(46.366 5.84159 -6.65888e-19)
(46.7501 6.38098 2.60144e-19)
(47.187 6.94295 -1.52683e-19)
(47.6053 7.48294 5.19857e-19)
(48.0239 7.9987 2.30744e-19)
(48.4287 8.53823 7.8581e-19)
(48.8333 9.07149 -8.11915e-19)
(49.1949 9.62085 5.21565e-19)
(49.5755 10.167 -5.64538e-19)
(50.1085 10.7076 -6.84626e-19)
(50.7304 11.2739 -7.54812e-19)
(51.3134 11.8127 0)
(51.9165 12.2941 1.81491e-18)
(52.5674 12.8273 -6.80449e-19)
(53.189 13.3375 -1.65411e-18)
(53.8526 13.7756 1.97734e-18)
(54.5815 14.1933 -5.96288e-20)
(55.356 14.5753 -1.52513e-18)
(56.2091 14.9478 -3.37503e-20)
(56.9248 15.2342 -1.9225e-18)
(57.024 15.2672 -4.79956e-18)
(55.65 14.9004 2.85699e-18)
(49.4495 13.2644 0)
(32.7647 8.17238 -4.02651e-18)
(5.12155 -0.207841 7.7104e-18)
(39.9807 2.21612 -2.44469e-23)
(41.4114 -1.50764 -1.44806e-20)
(41.3522 1.7358 3.91368e-21)
(42.4315 -0.497075 6.32488e-23)
(41.4182 1.21729 -1.65755e-20)
(42.6686 0.163832 0)
(41.9612 1.0296 0)
(42.7093 0.559229 -1.25341e-21)
(42.465 1.06533 6.46013e-20)
(42.7801 0.978604 -2.84617e-20)
(42.7951 1.28171 3.60038e-21)
(42.9627 1.43117 -8.93229e-21)
(43.1321 1.62498 3.89924e-20)
(43.3613 1.81781 -4.51817e-20)
(43.6481 1.99227 2.36612e-19)
(43.9249 2.19587 -5.94849e-20)
(44.1642 2.43968 7.56069e-20)
(44.3851 2.70201 2.29543e-20)
(44.6236 2.97072 -2.47697e-19)
(44.8987 3.25221 -1.75968e-19)
(45.2069 3.56426 4.64847e-21)
(45.5337 3.91943 -4.99607e-20)
(45.8748 4.31143 0)
(46.2248 4.71435 -2.56721e-19)
(46.5718 5.11039 4.8142e-21)
(46.9158 5.50013 6.97569e-20)
(47.248 5.89309 7.22648e-20)
(47.572 6.32207 1.95851e-19)
(47.9636 6.81284 0)
(48.3914 7.33848 1.43277e-19)
(48.8589 7.85326 8.20153e-19)
(49.3725 8.39259 7.67552e-19)
(49.9565 8.92956 -4.21729e-19)
(50.5293 9.47416 8.75749e-19)
(50.9857 10.0229 -7.16727e-19)
(51.4624 10.5221 -4.46007e-19)
(52.0755 11.039 0)
(52.6804 11.5779 -1.21167e-18)
(53.2434 12.0065 -7.76118e-19)
(53.8974 12.4034 8.66949e-19)
(54.5642 12.8061 -1.04899e-18)
(55.2558 13.1665 1.25393e-18)
(55.9916 13.494 0)
(56.8095 13.8191 8.46075e-19)
(57.1078 13.9119 0)
(56.6977 13.7833 1.27925e-18)
(53.9452 13.0432 -2.915e-18)
(45.3201 10.6978 1.65941e-18)
(26.1705 5.04468 0)
(2.35192 -0.552292 5.2026e-19)
(40.3905 2.11899 2.41112e-24)
(41.2936 -1.63144 1.72338e-24)
(41.808 1.79086 -3.9766e-21)
(42.2964 -0.791741 2.88881e-23)
(41.6995 1.25028 2.31845e-22)
(42.7248 -0.105648 6.65411e-23)
(42.0963 0.957447 -7.40632e-23)
(42.8942 0.31115 2.59063e-22)
(42.6301 0.89231 -3.06599e-20)
(43.0445 0.661614 -9.91612e-22)
(43.0454 1.01131 -6.08155e-22)
(43.2317 1.09193 1.4775e-21)
(43.3528 1.3096 5.37868e-20)
(43.5459 1.49536 -7.13816e-20)
(43.816 1.64748 -9.78867e-20)
(44.118 1.82175 5.92555e-20)
(44.4182 2.0259 -7.32203e-20)
(44.7034 2.26161 -3.50376e-21)
(44.9898 2.51971 -4.3812e-21)
(45.298 2.78717 0)
(45.6302 3.06417 -6.72429e-21)
(45.9778 3.36364 -4.05257e-21)
(46.3432 3.70926 4.53007e-21)
(46.7445 4.11384 0)
(47.1714 4.56384 0)
(47.5929 5.04903 2.54336e-19)
(48.0369 5.55679 0)
(48.5296 6.05898 -1.96115e-19)
(49.0054 6.52391 0)
(49.4534 6.99716 9.95073e-21)
(49.9016 7.49285 -3.74888e-19)
(50.3392 7.97755 2.67688e-20)
(50.7203 8.46394 -5.47374e-19)
(51.1051 8.93435 4.91504e-20)
(51.6398 9.39222 3.22052e-19)
(52.2624 9.88854 5.02695e-19)
(52.8137 10.3391 -1.7629e-20)
(53.3651 10.7113 0)
(53.9743 11.1534 -1.24379e-20)
(54.5373 11.5601 1.47237e-20)
(55.1162 11.8828 0)
(55.7489 12.1928 -2.04773e-20)
(56.4645 12.495 -9.46333e-20)
(56.9485 12.662 -7.18161e-19)
(56.9792 12.6705 -1.55161e-20)
(55.88 12.3741 0)
(51.4775 11.3131 0)
(39.897 8.44862 2.30147e-19)
(16.7055 2.32227 -2.2737e-19)
(0.162024 -0.2702 5.17033e-19)
(40.6715 2.00186 1.64173e-20)
(41.2309 -1.66696 2.29977e-20)
(42.1284 1.79265 9.47767e-21)
(42.102 -0.987635 1.92548e-20)
(41.9596 1.29405 1.48777e-20)
(42.6806 -0.348304 -3.02322e-20)
(42.1884 0.931725 0)
(42.9681 0.0826306 0)
(42.6912 0.771863 2.77311e-20)
(43.2 0.400653 9.91343e-22)
(43.2188 0.791812 -4.53776e-20)
(43.4742 0.772574 -3.38257e-21)
(43.6097 1.02131 -7.50332e-20)
(43.8049 1.20181 9.58552e-20)
(44.0576 1.3705 1.31649e-19)
(44.3628 1.54901 0)
(44.7 1.73297 0)
(45.0295 1.95526 3.50325e-21)
(45.3525 2.22098 4.38052e-21)
(45.7024 2.5061 -1.95671e-19)
(46.0834 2.80294 6.72314e-21)
(46.47 3.11091 0)
(46.8434 3.42298 0)
(47.2134 3.74913 -5.49704e-20)
(47.624 4.1033 -2.7445e-19)
(48.0618 4.47612 8.41315e-20)
(48.4612 4.85176 0)
(48.8286 5.26577 -2.38756e-19)
(49.2377 5.74165 0)
(49.7104 6.21859 -9.94929e-21)
(50.1956 6.69151 0)
(50.7211 7.17853 0)
(51.313 7.66653 1.48215e-19)
(51.904 8.16743 1.75487e-19)
(52.3615 8.6634 0)
(52.8016 9.08507 0)
(53.3885 9.53562 1.76204e-20)
(53.9631 10.0213 0)
(54.4439 10.3631 1.24304e-20)
(55.0022 10.6805 -4.97434e-19)
(55.581 11.0123 5.76836e-19)
(56.1868 11.3043 5.15914e-20)
(56.8371 11.5843 3.31717e-20)
(57.0071 11.6761 -8.30453e-19)
(56.6076 11.6034 -5.29041e-19)
(54.2194 11.1377 3.01368e-18)
(47.2436 9.65568 -1.36661e-18)
(31.5387 6.09509 -1.5956e-18)
(7.70016 0.687891 1.31233e-18)
(-1.35922 0.0842137 0)
(40.8723 1.81248 -1.63539e-20)
(41.2087 -1.6572 3.62812e-20)
(42.4131 1.63622 -9.2166e-21)
(41.9535 -1.15013 2.73547e-20)
(42.2083 1.19014 -1.57243e-20)
(42.5896 -0.594766 3.08745e-20)
(42.3243 0.806647 2.58521e-21)
(42.9914 -0.179803 -2.88238e-21)
(42.7599 0.583043 -2.34057e-20)
(43.3075 0.0953694 -4.80282e-21)
(43.3285 0.510801 4.83673e-20)
(43.6508 0.377722 1.43552e-19)
(43.798 0.626396 -1.00189e-19)
(44.0001 0.751319 -8.68831e-20)
(44.2162 0.914631 -4.30806e-19)
(44.495 1.07573 2.2638e-20)
(44.8493 1.20733 -2.52692e-20)
(45.224 1.36975 2.77915e-19)
(45.5799 1.59188 4.37064e-20)
(45.9528 1.84525 1.46624e-19)
(46.3765 2.11207 0)
(46.8321 2.41203 0)
(47.295 2.74887 0)
(47.7402 3.10258 0)
(48.1658 3.48316 2.68551e-19)
(48.62 3.93279 -7.09317e-19)
(49.1302 4.43105 0)
(49.6717 4.90436 7.53013e-19)
(50.187 5.33451 0)
(50.677 5.78187 0)
(51.1514 6.24798 -8.8e-19)
(51.6068 6.70266 5.26288e-19)
(51.9926 7.14764 -1.21471e-18)
(52.359 7.56746 3.4946e-19)
(52.8657 7.98019 0)
(53.4792 8.45115 0)
(53.9777 8.85378 6.14927e-19)
(54.4464 9.16814 -2.1177e-18)
(55.0001 9.576 0)
(55.5041 9.94198 -1.49854e-18)
(55.9974 10.2304 2.26867e-18)
(56.6245 10.5768 -2.5087e-18)
(56.8772 10.7508 1.42672e-18)
(56.7626 10.7678 -1.82164e-18)
(55.5357 10.6428 4.63567e-18)
(51.3906 9.86994 -4.1068e-18)
(41.0873 7.77397 2.70533e-18)
(21.4509 3.49768 -6.02159e-18)
(2.77124 0.206883 7.16738e-18)
(-2.05293 0.252445 -4.59737e-18)
(40.9377 1.68617 -6.06881e-20)
(41.1741 -1.60486 9.37487e-21)
(42.5377 1.52597 0)
(41.768 -1.23276 -4.63713e-20)
(42.38 1.14784 -1.10832e-19)
(42.4425 -0.792459 4.17158e-21)
(42.4107 0.737378 0)
(42.9273 -0.416119 0)
(42.7482 0.45123 -9.69064e-21)
(43.3081 -0.162637 1.07941e-20)
(43.3481 0.295229 -2.37923e-19)
(43.7509 0.0549204 1.68665e-19)
(43.9551 0.312999 1.79874e-19)
(44.22 0.376418 -2.46409e-19)
(44.4481 0.560773 2.86163e-19)
(44.7021 0.741426 4.96147e-20)
(45.044 0.874112 -5.37558e-19)
(45.4409 1.01205 -8.76184e-19)
(45.8332 1.20235 0)
(46.2185 1.44338 4.5729e-19)
(46.6452 1.70075 5.63188e-19)
(47.1173 1.97007 0)
(47.6036 2.27448 -8.48498e-19)
(48.0975 2.60897 0)
(48.5843 2.92728 0)
(49.0485 3.22548 7.07167e-19)
(49.4882 3.5695 4.54958e-19)
(49.9136 3.99047 1.09642e-18)
(50.3542 4.46179 0)
(50.8298 4.92177 0)
(51.3226 5.37211 4.10681e-19)
(51.8318 5.83682 5.20922e-19)
(52.4155 6.30515 1.95351e-18)
(53.0155 6.7975 4.17625e-20)
(53.4811 7.27 4.75981e-20)
(53.8678 7.64858 -2.09288e-18)
(54.4119 8.06928 -6.18845e-20)
(54.9595 8.54257 2.83158e-18)
(55.3707 8.86207 1.70844e-18)
(55.8314 9.17036 9.76093e-19)
(56.3894 9.54199 2.27051e-18)
(56.8263 9.84113 9.25454e-20)
(56.8932 9.90558 -2.84198e-18)
(56.3571 10.022 -1.77706e-18)
(53.898 9.6715 -5.11091e-18)
(46.993 8.48563 5.79594e-18)
(32.4757 5.71737 -2.59695e-18)
(9.36307 1.19048 0)
(-0.654906 0.278807 0)
(-2.35389 0.202867 9.0519e-19)
(40.997 1.46552 1.95939e-19)
(41.1291 -1.5109 8.12879e-20)
(42.7033 1.25832 -8.77483e-20)
(41.6608 -1.26845 3.3099e-21)
(42.5128 0.935338 2.30139e-19)
(42.2929 -0.966799 -4.66118e-21)
(42.5137 0.55671 0)
(42.8302 -0.658187 -2.67342e-19)
(42.7761 0.238345 -1.04258e-20)
(43.266 -0.453377 -1.6827e-21)
(43.2955 0.0215898 5.01338e-19)
(43.7328 -0.335333 -2.90166e-19)
(43.9316 -0.0937835 3.01099e-21)
(44.2636 -0.149467 2.16077e-19)
(44.516 0.00709058 0)
(44.7874 0.157071 0)
(45.1253 0.278627 4.15182e-19)
(45.5348 0.392566 6.70502e-19)
(45.9747 0.518876 0)
(46.3995 0.696399 -4.55859e-19)
(46.8373 0.921938 -5.61323e-19)
(47.3376 1.17081 -1.86337e-19)
(47.8801 1.45383 1.62871e-19)
(48.4299 1.79952 8.09975e-19)
(48.9776 2.2135 3.10843e-19)
(49.5082 2.65194 4.06281e-19)
(50.0401 3.09112 -1.36394e-18)
(50.6053 3.53703 -1.09055e-18)
(51.1815 3.97692 1.37878e-18)
(51.7128 4.43702 -1.63852e-18)
(52.2061 4.89941 0)
(52.6725 5.34255 0)
(53.0516 5.77449 6.61026e-20)
(53.3843 6.16912 -1.51685e-18)
(53.8344 6.56981 1.85856e-18)
(54.444 7.04423 3.27693e-18)
(54.9156 7.45031 -1.2282e-18)
(55.3131 7.75642 -2.97308e-18)
(55.8082 8.1618 -3.42524e-18)
(56.3162 8.5524 -2.01149e-18)
(56.8276 8.93142 -7.9951e-20)
(56.9879 9.10375 2.46748e-18)
(56.7349 9.32162 0)
(55.2482 9.2328 1.75767e-18)
(50.5415 8.60664 2.00932e-18)
(39.9372 6.80687 2.26369e-18)
(20.3775 3.20044 7.6154e-18)
(2.79704 0.621669 -2.83228e-18)
(-2.37558 0.591162 0)
(-2.24959 0.32075 0)
(40.9251 1.35814 6.35931e-21)
(41.0421 -1.42331 -1.49733e-19)
(42.6907 1.12613 9.05593e-20)
(41.4471 -1.29443 -2.18458e-19)
(42.5713 0.819525 -1.30715e-19)
(42.0764 -1.08774 -4.51667e-22)
(42.5429 0.439719 5.98931e-21)
(42.6699 -0.873702 2.49682e-19)
(42.7353 0.0925625 1.90785e-20)
(43.152 -0.682761 2.74356e-20)
(43.2329 -0.17156 -2.44504e-19)
(43.6751 -0.584378 -3.84402e-20)
(43.9028 -0.344489 -4.09245e-19)
(44.2831 -0.494944 -5.23818e-19)
(44.5654 -0.356795 8.69088e-20)
(44.857 -0.256141 -9.69443e-20)
(45.191 -0.130983 0)
(45.5955 0.00220369 -6.44619e-19)
(46.0732 0.117223 0)
(46.5565 0.259305 0)
(47.0132 0.451209 0)
(47.4939 0.663965 -3.89288e-19)
(48.0256 0.895794 1.32121e-18)
(48.5872 1.16339 -1.08251e-18)
(49.1869 1.46914 0)
(49.7977 1.8055 -4.25975e-19)
(50.3473 2.15981 -1.53944e-18)
(50.8214 2.55979 -2.41621e-18)
(51.2788 3.02534 -2.09496e-18)
(51.7803 3.50084 1.58857e-18)
(52.2815 3.97542 -1.97355e-18)
(52.7776 4.45107 1.13257e-18)
(53.3383 4.92254 2.7821e-18)
(53.9402 5.42498 0)
(54.4392 5.90428 1.96207e-18)
(54.7821 6.27721 -4.39656e-18)
(55.2606 6.67027 -8.56828e-20)
(55.784 7.14567 2.94098e-18)
(56.2059 7.49652 1.71224e-18)
(56.7008 7.90795 0)
(57.0361 8.26706 2.28431e-18)
(56.9732 8.488 -2.71514e-18)
(56.149 8.57424 6.11249e-18)
(53.0562 8.39973 0)
(45.3819 7.28335 -7.93757e-18)
(29.8328 4.72611 2.18899e-18)
(7.94266 1.19168 -2.48516e-18)
(-0.974415 0.747514 -2.7862e-18)
(-3.19577 0.651887 6.16817e-18)
(-2.03137 0.400561 4.67028e-21)
(40.8754 1.15416 -1.4155e-19)
(40.9323 -1.32516 1.52298e-19)
(42.7331 0.870581 -1.92656e-19)
(41.3333 -1.27083 4.31082e-19)
(42.6234 0.564905 -2.81327e-19)
(41.8638 -1.16024 2.08579e-20)
(42.5912 0.206917 -2.14145e-19)
(42.4678 -1.03497 0)
(42.7143 -0.13002 -3.12414e-19)
(43.0061 -0.954621 4.41861e-19)
(43.1021 -0.437313 3.98937e-21)
(43.5248 -0.930253 -3.84146e-20)
(43.7257 -0.704549 4.07856e-19)
(44.1619 -0.954517 2.89722e-21)
(44.4667 -0.866843 5.61803e-19)
(44.8078 -0.866229 9.73917e-20)
(45.1353 -0.788376 0)
(45.5196 -0.686706 6.41747e-19)
(46.0098 -0.616428 1.61317e-18)
(46.5591 -0.52593 0)