/*--------------------------------*- C++ -*----------------------------------*\
| =========                 |                                                 |
| \\      /  F ield         | OpenFOAM: The Open Source CFD Toolbox           |
|  \\    /   O peration     | Version:  v1912                                 |
|   \\  /    A nd           | Website:  www.openfoam.com                      |
|    \\/     M anipulation  |                                                 |
\*---------------------------------------------------------------------------*/
FoamFile
{
    version     2.0;
    format      ascii;
    class       volScalarField;
    location    "0.24";
    object      p;
}
// * * * * * * * * * * * * * * * * * * * * * * * * * * * * * * * * * * * * * //

dimensions      [0 2 -2 0 0 0 0];


internalField   nonuniform List<scalar> 
6600
(
66.9084
62.0074
59.6094
58.1903
57.6978
57.6415
57.9103
58.5851
59.7058
61.3277
63.4841
66.1274
69.2587
72.9316
77.1019
81.7783
86.9714
92.6786
98.91
105.639
112.83
120.432
128.338
136.614
145.281
154.051
162.807
171.549
180.147
188.43
196.28
203.56
210.059
215.477
219.552
222.022
222.524
220.698
216.181
208.549
197.368
182.054
162.087
136.82
105.631
67.7852
23.1231
-29.377
-90.5931
-151.457
63.4227
58.2088
56.316
54.6598
53.699
53.2014
53.1903
53.6319
54.5524
55.9431
57.8361
60.2355
63.1127
66.4974
70.3608
74.7118
79.5498
84.8694
90.6681
96.9188
103.591
110.647
118.009
125.5
133.184
141.062
148.883
156.515
163.94
170.999
177.456
183.185
187.986
191.56
193.644
193.957
192.164
187.89
180.748
170.348
156.17
137.699
114.421
85.7103
50.9604
9.47445
-38.8825
-94.4887
-157.382
-217.734
58.526
52.8746
51.8053
49.8784
48.6758
47.9857
47.793
48.0459
48.8318
50.1285
51.8721
54.0892
56.8152
60.0198
63.6905
67.8225
72.4112
77.4432
82.8979
88.7445
94.9465
101.463
108.208
115.058
121.98
128.898
135.694
142.263
148.475
154.146
159.091
163.136
166.074
167.624
167.529
165.51
161.224
154.322
144.415
131.073
113.826
92.2204
65.7827
33.969
-3.75306
-48.0116
-98.9785
-155.961
-217.695
-274.077
52.6596
46.6088
46.0853
43.7901
42.5613
41.807
41.4344
41.5881
42.3234
43.5362
45.1932
47.3436
49.9527
53.0274
56.5515
60.5119
64.894
69.6678
74.8032
80.2597
85.9932
91.9698
98.1567
104.343
110.437
116.458
122.252
127.626
132.522
136.785
140.158
142.453
143.461
142.937
140.614
136.204
129.399
119.85
107.169
90.9636
70.8591
46.4563
17.3492
-16.891
-56.6776
-102.502
-154.391
-211.041
-269.934
-320.054
45.9107
39.3833
39.1016
36.5452
35.3445
34.5259
34.123
34.2127
34.8013
35.9331
37.5587
39.5951
42.079
45.0097
48.3618
52.1197
56.2531
60.7334
65.5206
70.56
75.7951
81.1777
86.6442
92.115
97.4535
102.533
107.276
111.551
115.163
117.961
119.763
120.341
119.482
116.932
112.451
105.768
96.5671
84.547
69.3704
50.6996
28.2353
1.67646
-29.2775
-64.9456
-105.624
-151.6
-202.832
-257.772
-312.361
-354.623
38.4443
31.3016
30.9022
28.1215
26.9301
26.008
25.6071
25.6557
26.1399
27.1135
28.582
30.491
32.8104
35.535
38.6465
42.1199
45.9291
50.0409
54.4076
58.9691
63.6608
68.4338
73.2495
77.9497
82.4214
86.6091
90.3219
93.3965
95.7455
97.1669
97.4464
96.3985
93.7875
89.3865
82.9529
74.2274
62.9563
48.8721
31.7069
11.2071
-12.84
-40.6531
-72.4321
-108.384
-148.741
-193.7
-242.84
-294.721
-344.217
-377.412
29.3853
22.0723
21.47
18.4709
17.2218
16.32
15.8135
15.765
16.1639
17.0008
18.2435
19.9064
21.9643
24.3992
27.1778
30.2793
33.6796
37.3375
41.2063
45.2285
49.336
53.4507
57.5141
61.4504
65.1024
68.3442
71.053
73.0657
74.1892
74.2802
73.1594
70.6218
66.4666
60.4451
52.3589
42.003
29.1466
13.5881
-4.87121
-26.4067
-51.1693
-79.2812
-110.835
-145.94
-184.767
-227.604
-274.033
-321.983
-365.506
-389.505
18.8016
11.5645
10.692
7.51927
6.23556
5.19335
4.59196
4.46969
4.72116
5.32157
6.31789
7.67766
9.37338
11.4167
13.7758
16.4261
19.3372
22.4713
25.7812
29.2093
32.6959
36.1876
39.5867
42.7223
45.4967
47.8517
49.5913
50.529
50.5604
49.4961
47.1491
43.35
37.8964
30.6217
21.3312
9.83401
-4.02081
-20.3767
-39.3759
-61.1391
-85.728
-113.194
-143.571
-176.914
-213.323
-252.996
-296.067
-339.799
-377.551
-393.912
6.11932
-0.494372
-1.44144
-4.77219
-5.99057
-7.23891
-7.97198
-8.3504
-8.32478
-7.96021
-7.27989
-6.31672
-5.04354
-3.46108
-1.60052
0.522108
2.88091
5.43739
8.14677
10.956
13.7984
16.5819
19.2356
21.6764
23.7528
25.2803
26.1291
26.1899
25.2816
23.2516
19.9301
15.1646
8.81076
0.674503
-9.36674
-21.4268
-35.6412
-52.1182
-70.9353
-92.1394
-115.769
-141.816
-170.231
-201.003
-234.262
-270.323
-309.018
-348.194
-381.58
-393.854
-8.15891
-14.1289
-15.0699
-18.3513
-19.6445
-20.9738
-21.9699
-22.5656
-22.9222
-22.9658
-22.7043
-22.1784
-21.3844
-20.3395
-19.0397
-17.4954
-15.7294
-13.7844
-11.6914
-9.49676
-7.26868
-5.05223
-2.98305
-1.25765
0.042178
0.884049
1.07482
0.412505
-1.19871
-3.9092
-7.86019
-13.2037
-20.0884
-28.5931
-38.8375
-50.9405
-64.957
-80.9244
-98.8957
-118.901
-140.907
-164.867
-190.719
-218.392
-247.824
-279.649
-312.994
-346.245
-374.19
-386.142
-23.7504
-29.2456
-30.0875
-33.1701
-34.5435
-36.059
-37.37
-38.3523
-39.0585
-39.5355
-39.8165
-39.8538
-39.641
-39.1951
-38.5066
-37.5841
-36.4509
-35.1283
-33.6443
-32.0537
-30.4224
-28.8447
-27.3839
-26.1066
-25.1769
-24.8368
-25.1815
-26.2698
-28.2663
-31.3191
-35.5748
-41.1204
-48.046
-56.4895
-66.5024
-78.109
-91.3675
-106.314
-122.934
-141.186
-161.041
-182.43
-205.22
-229.237
-254.692
-281.366
-308.07
-332.466
-349.475
-360.07
-40.6194
-45.5699
-46.3156
-49.278
-50.7459
-52.6077
-54.115
-55.5193
-56.7639
-57.848
-58.7264
-59.3794
-59.8449
-60.0603
-60.0345
-59.7752
-59.278
-58.5602
-57.6601
-56.6088
-55.4559
-54.2462
-53.1368
-52.3377
-51.8796
-51.7632
-52.2073
-53.4228
-55.5015
-58.5521
-62.665
-67.9734
-74.5806
-82.5005
-91.7892
-102.512
-114.645
-128.14
-142.976
-159.115
-176.458
-194.886
-214.229
-234.357
-255.214
-275.885
-295.022
-309.467
-315.022
-320.668
-58.6158
-62.9766
-63.6106
-66.4169
-67.9904
-70.1677
-72.1768
-74.0642
-75.8613
-77.5754
-79.1445
-80.5861
-81.8049
-82.7609
-83.4792
-83.9287
-84.0945
-83.9962
-83.6526
-83.098
-82.3874
-81.6129
-80.8136
-80.0227
-79.4251
-79.2993
-79.7124
-80.7117
-82.449
-85.0803
-88.7361
-93.4591
-99.2969
-106.347
-114.625
-124.08
-134.702
-146.472
-159.305
-173.081
-187.692
-202.99
-218.712
-234.954
-250.848
-265.366
-277.375
-285.229
-289.327
-290.98
-77.4846
-80.8683
-81.5113
-84.3488
-86.1692
-88.7083
-91.2122
-93.6961
-96.2452
-98.752
-101.158
-103.42
-105.476
-107.288
-108.81
-110.006
-110.867
-111.382
-111.556
-111.405
-110.963
-110.264
-109.46
-108.759
-108.173
-107.683
-107.517
-107.908
-108.983
-110.846
-113.576
-117.294
-122.087
-127.934
-134.83
-142.807
-151.8
-161.687
-172.374
-183.765
-195.696
-207.921
-220.34
-232.606
-244.149
-254.053
-261.185
-264.719
-269.736
-270.386
-96.6757
-99.1454
-99.7284
-102.596
-104.676
-107.739
-110.854
-114.12
-117.463
-120.834
-124.18
-127.396
-130.455
-133.276
-135.727
-137.784
-139.421
-140.592
-141.291
-141.541
-141.371
-140.843
-139.984
-138.822
-137.513
-136.361
-135.499
-134.97
-134.931
-135.588
-137.099
-139.536
-142.914
-147.307
-152.735
-159.089
-166.281
-174.261
-182.908
-192.048
-201.5
-211.071
-220.576
-229.767
-238.005
-244.404
-248.294
-251.305
-253.226
-254.525
-115.274
-116.744
-117.551
-120.618
-123.112
-126.822
-130.666
-134.808
-139.177
-143.686
-148.201
-152.573
-156.732
-160.636
-164.163
-167.203
-169.692
-171.583
-172.843
-173.446
-173.379
-172.671
-171.432
-169.882
-168.107
-166.071
-163.926
-161.983
-160.491
-159.612
-159.477
-160.21
-161.962
-164.724
-168.424
-173.071
-178.605
-184.85
-191.67
-198.941
-206.307
-213.514
-220.724
-227.498
-233.273
-237.378
-239.644
-242.152
-243.213
-244.123
-132.719
-133.348
-134.421
-137.704
-140.789
-145.257
-150.027
-155.247
-160.793
-166.525
-172.354
-178.129
-183.671
-188.84
-193.622
-197.892
-201.438
-204.202
-206.142
-207.203
-207.364
-206.662
-205.142
-202.806
-199.757
-196.319
-192.78
-189.251
-185.896
-182.981
-180.807
-179.608
-179.418
-180.299
-182.32
-185.355
-189.251
-193.963
-199.419
-205.121
-210.525
-216.026
-221.421
-226.121
-229.704
-232.001
-234.479
-235.629
-236.56
-236.975
-148.258
-147.936
-149.568
-153.348
-157.137
-162.592
-168.416
-174.856
-181.806
-189.096
-196.518
-203.876
-211.051
-217.844
-224.132
-229.779
-234.59
-238.44
-241.215
-242.845
-243.252
-242.345
-240.203
-237.102
-233.207
-228.49
-223.08
-217.295
-211.574
-206.292
-201.704
-198.012
-195.535
-194.409
-194.527
-195.85
-198.38
-202.08
-206.364
-210.493
-214.825
-219.295
-222.968
-225.43
-226.854
-228.446
-229.834
-231.02
-231.918
-232.122
-160.778
-160.201
-162.445
-166.799
-171.41
-178.004
-185.076
-192.97
-201.479
-210.401
-219.595
-228.911
-238.067
-246.821
-254.954
-262.284
-268.742
-274.018
-277.949
-280.438
-281.378
-280.69
-278.356
-274.434
-268.97
-262.234
-254.724
-246.715
-238.411
-230.123
-222.384
-215.813
-210.651
-207.015
-205.089
-204.876
-206.259
-208.945
-212.053
-215.671
-219.77
-223.157
-224.893
-225.38
-225.361
-225.844
-226.893
-228.209
-229.138
-229.398
-169.251
-169.533
-172.543
-177.641
-183.236
-191.062
-199.412
-208.926
-219.251
-230.139
-241.409
-252.844
-264.254
-275.37
-285.826
-295.37
-303.815
-310.913
-316.371
-320.046
-321.782
-321.41
-318.737
-313.973
-307.477
-299.358
-289.651
-278.624
-266.909
-255.167
-243.951
-233.656
-224.928
-218.357
-214.024
-211.877
-211.999
-213.817
-216.851
-221.05
-225.002
-227.136
-227.411
-226.623
-225.956
-225.645
-226.184
-227.164
-227.865
-228.236
-173.661
-175.494
-179.314
-185.288
-191.976
-201.18
-210.903
-222.116
-234.325
-247.286
-260.826
-274.747
-288.772
-302.597
-315.846
-328.123
-339.062
-348.482
-356.1
-361.54
-364.584
-365.112
-362.982
-358.037
-350.259
-339.908
-327.514
-313.622
-298.575
-282.784
-266.878
-251.986
-239.03
-228.493
-220.872
-216.395
-215.313
-216.825
-220.621
-225.401
-229.282
-231.041
-230.981
-229.919
-228.749
-227.741
-226.995
-226.589
-226.627
-226.958
-173.345
-177.502
-182.25
-189.429
-197.456
-207.976
-219.079
-232.093
-246.248
-261.437
-277.48
-294.096
-311.028
-327.947
-344.45
-360.049
-374.272
-386.743
-397.089
-404.905
-409.866
-411.735
-410.248
-405.205
-396.819
-385.368
-370.797
-353.56
-334.223
-313.581
-292.708
-272.336
-253.425
-237.464
-225.527
-217.86
-214.913
-216.276
-221.008
-226.899
-231.451
-233.962
-234.549
-233.598
-231.657
-229.312
-227.041
-225.301
-224.422
-224.26
-169.165
-175.673
-181.419
-189.862
-199.267
-211.034
-223.611
-238.367
-254.466
-271.846
-290.404
-309.921
-330.04
-350.407
-370.605
-390.091
-408.253
-424.507
-438.338
-449.368
-457.198
-461.382
-461.595
-457.544
-449.115
-436.221
-419.168
-398.658
-375.332
-349.857
-322.809
-295.366
-269.396
-246.469
-227.83
-214.655
-208.281
-209.501
-216.447
-224.343
-230.096
-233.525
-234.856
-234.337
-231.847
-228.547
-225.146
-222.277
-220.517
-219.697
-161.411
-170.489
-176.973
-186.719
-197.334
-210.274
-224.325
-240.704
-258.597
-278.211
-299.336
-321.758
-345.224
-369.327
-393.594
-417.453
-440.21
-461.118
-479.515
-494.788
-506.45
-513.863
-516.481
-513.861
-505.917
-492.772
-474.569
-451.385
-423.733
-392.305
-358.482
-323.76
-289.182
-256.653
-228.539
-207.086
-195.956
-196.741
-205.594
-216.423
-224.681
-229.357
-231.83
-232.089
-230.395
-227.291
-223.352
-219.625
-217.021
-215.323
-151.447
-162.383
-169.304
-180.265
-191.798
-205.578
-221.077
-238.833
-258.393
-280.041
-303.651
-329.007
-355.807
-383.764
-412.393
-441.08
-469.059
-495.437
-519.339
-539.933
-556.388
-568.134
-574.658
-575.254
-569.333
-556.666
-537.258
-511.482
-479.825
-443.435
-402.986
-359.304
-314.127
-270.633
-231.1
-198.865
-180.284
-178.007
-188.484
-203.2
-216.082
-225.737
-232.309
-234.866
-234.102
-230.848
-226.277
-221.623
-218.351
-216.233
-139.308
-152.145
-159.345
-171.141
-183.159
-197.631
-214.041
-232.87
-253.889
-277.399
-303.197
-331.271
-361.405
-393.261
-426.39
-460.191
-493.858
-526.393
-556.745
-583.796
-606.466
-624.086
-635.772
-640.401
-637.294
-626.253
-607.528
-580.782
-546.507
-504.937
-456.8
-404.077
-349.07
-293.35
-239.804
-193.987
-166.879
-159.54
-169.19
-188.822
-209.501
-226.244
-237.49
-242.534
-242.833
-239.757
-234.389
-228.604
-224.39
-221.986
-127.267
-140.06
-147.715
-159.726
-172.042
-186.808
-203.654
-223.204
-245.235
-270.096
-297.841
-328.414
-361.638
-397.241
-434.871
-473.961
-513.669
-552.911
-590.392
-624.909
-655.259
-680.113
-698.279
-708.95
-710.999
-703.722
-686.461
-659.477
-622.942
-577.256
-523.835
-463.712
-397.437
-325.755
-257.148
-203.45
-167.911
-153.401
-156.521
-175.897
-201.559
-224.615
-239.725
-246.699
-248.865
-246.263
-241.188
-235.393
-231.545
-230.124
-116.097
-127.145
-135.438
-147.236
-159.377
-174.155
-190.956
-210.628
-233.19
-259.011
-288.068
-320.554
-356.43
-395.493
-437.504
-481.895
-527.819
-574.104
-619.329
-662.213
-701.322
-734.932
-761.584
-780.051
-788.515
-785.978
-772.182
-746.864
-710.632
-663.77
-605.832
-537.976
-458.34
-374.868
-295.465
-231.421
-189.264
-169.243
-168.197
-180.803
-201.093
-221.639
-235.683
-242.74
-244.761
-243.416
-240.095
-236.446
-234.133
-233.726
-110.664
-113.828
-123.077
-134.099
-146.023
-160.445
-176.811
-196.218
-218.647
-244.709
-274.6
-308.364
-346.163
-388.06
-434.035
-483.626
-535.857
-589.499
-642.881
-694.677
-743.638
-787.422
-823.908
-851.841
-869.167
-874.147
-866.256
-844.722
-809.708
-762.081
-698.223
-620.347
-531.708
-442.025
-359.572
-286.497
-237.035
-209.115
-198.687
-201.703
-212.119
-225.394
-234.762
-239.453
-239.786
-237.515
-235.137
-233.599
-233.14
-233.82
-123.837
-103.692
-111.589
-121.558
-133.222
-147.177
-162.916
-181.601
-203.64
-229.479
-259.421
-293.785
-332.905
-376.922
-425.972
-480.222
-538.228
-598.695
-660.366
-721.772
-781.146
-835.645
-882.799
-922.169
-950.166
-963.726
-964.214
-950.177
-917.21
-867.483
-803.563
-714.816
-622.87
-531.079
-440.671
-366.287
-309.922
-271.466
-248.323
-237.706
-235.719
-237.869
-240.166
-240.094
-237.333
-233.969
-231.693
-231.255
-232.022
-233.196
42.9718
38.0132
35.6127
34.1351
33.5108
33.3087
33.3712
33.7703
34.5145
35.6807
37.31
39.3502
41.7784
44.6294
47.8972
51.5898
55.7198
60.2809
65.2934
70.7433
76.5933
82.753
89.2395
96.2239
103.46
110.807
118.242
125.704
133.066
140.194
146.987
153.317
158.952
163.652
167.241
169.4
169.775
168.034
163.779
156.606
146.057
131.619
112.742
88.769
59.152
23.0883
-19.8066
-69.9187
-130.168
-190.491
39.3212
33.933
31.9554
30.1112
28.9347
28.2374
27.9538
28.039
28.5012
29.3682
30.647
32.3278
34.4097
36.8792
39.7512
43.0198
46.6951
50.7646
55.2406
60.1178
65.3826
71.005
76.7141
82.5798
88.833
95.2588
101.608
107.846
113.928
119.672
124.909
129.52
133.285
135.939
137.303
137.066
134.842
130.349
123.096
112.732
98.7451
80.6069
57.7776
29.6054
-4.49854
-45.2803
-92.9985
-147.717
-211.194
-273.232
34.1225
28.1522
26.9594
24.7405
23.2813
22.3124
21.7372
21.5265
21.7594
22.425
23.4535
24.8405
26.6281
28.8063
31.3667
34.2964
37.5997
41.2582
45.2619
49.6027
54.2576
59.1739
64.2794
69.4775
74.7495
80.0462
85.2602
90.283
94.9863
99.2129
102.796
105.581
107.331
107.788
106.751
103.922
98.9244
91.4236
81.0543
67.3533
49.8244
27.9694
1.27825
-30.8451
-68.9616
-113.751
-165.382
-223.285
-287.266
-347.225
27.8134
21.3174
20.6401
17.9707
16.4407
15.2831
14.4504
14.0665
14.1377
14.614
15.4361
16.6512
18.2125
20.1395
22.4264
25.0543
28.0129
31.273
34.8173
38.6272
42.6955
47.0212
51.3797
55.7097
60.0363
64.3036
68.3395
72.0344
75.2991
77.9648
79.8317
80.7089
80.3718
78.5799
75.0861
69.6021
61.7788
51.2744
37.7505
20.7475
-0.19008
-25.5083
-55.6486
-91.1055
-132.382
-180.076
-234.245
-293.544
-356.43
-412.251
20.4824
13.4563
12.9605
9.98365
8.45063
7.13478
6.19194
5.67563
5.53823
5.81352
6.4967
7.48323
8.81167
10.4812
12.4664
14.7583
17.3344
20.161
23.2061
26.4329
29.789
33.295
36.9151
40.4783
43.8629
47.0048
49.8346
52.2355
54.0512
55.1122
55.2316
54.2138
51.8223
47.809
41.9254
33.8878
23.3749
10.046
-6.4316
-26.4294
-50.3379
-78.5351
-111.384
-149.272
-192.575
-241.759
-296.788
-356.075
-416.809
-466.959
12.3203
4.65086
4.08372
0.812559
-0.759252
-2.18105
-3.19933
-3.88507
-4.19412
-4.14671
-3.74412
-2.99644
-1.94445
-0.607022
1.00893
2.87359
4.97866
7.29887
9.7786
12.3825
15.0842
17.8238
20.5167
23.086
25.4913
27.5955
29.2412
30.3069
30.6665
30.1524
28.579
25.7372
21.3879
15.2934
7.20243
-3.16055
-16.0872
-31.88
-50.8281
-73.2405
-99.4221
-129.668
-164.242
-203.431
-247.53
-296.855
-351.395
-409.477
-466.818
-509.893
2.49942
-5.32512
-6.03679
-9.53149
-11.2187
-12.682
-13.8684
-14.6784
-15.1933
-15.4038
-15.3156
-14.9341
-14.2788
-13.3641
-12.2218
-10.8756
-9.33073
-7.6189
-5.78715
-3.90171
-1.98652
-0.0556109
1.77464
3.39708
4.7521
5.72723
6.19198
5.99802
4.98167
2.96937
-0.219799
-4.76844
-10.9006
-18.8627
-28.8837
-41.2103
-56.0937
-73.7941
-94.5628
-118.627
-146.215
-177.538
-212.779
-252.14
-295.875
-344.288
-397.049
-452.524
-505.525
-540.314
-8.64584
-16.4552
-17.4573
-21.1255
-22.8891
-24.5775
-25.9425
-26.9364
-27.6592
-28.2079
-28.485
-28.5288
-28.3745
-28.0019
-27.4361
-26.6995
-25.817
-24.801
-23.6929
-22.5596
-21.4447
-20.3639
-19.4363
-18.7883
-18.4507
-18.536
-19.2255
-20.6725
-23.006
-26.3883
-30.9974
-37.0319
-44.7057
-54.2094
-65.7535
-79.5614
-95.8481
-114.815
-136.643
-161.518
-189.608
-221.043
-255.924
-294.388
-336.674
-383.178
-433.529
-485.426
-532.927
-559.11
-21.8515
-28.9961
-30.1394
-33.9555
-35.6873
-37.6368
-39.199
-40.55
-41.6608
-42.5242
-43.2584
-43.8523
-44.2596
-44.5129
-44.6121
-44.5832
-44.4311
-44.1831
-43.8702
-43.5424
-43.279
-43.1148
-43.1031
-43.3444
-43.9737
-45.1321
-46.9238
-49.4607
-52.9152
-57.4727
-63.3031
-70.5538
-79.3973
-90.035
-102.643
-117.392
-134.444
-153.964
-176.108
-200.994
-228.723
-259.374
-293.008
-329.731
-369.718
-413.296
-460.454
-508.144
-549.669
-568.095
-36.5579
-42.9015
-44.1211
-47.9252
-49.7744
-51.8721
-53.7916
-55.4862
-57.0412
-58.4608
-59.7449
-60.9091
-61.9775
-62.9282
-63.7738
-64.5106
-65.1545
-65.7318
-66.2546
-66.7603
-67.3078
-67.9595
-68.8322
-70.0262
-71.5961
-73.6534
-76.3596
-79.8681
-84.3006
-89.7891
-96.4814
-104.555
-114.189
-125.506
-138.642
-153.751
-170.968
-190.407
-212.153
-236.298
-262.917
-292.037
-323.656
-357.824
-394.751
-434.768
-477.587
-520.687
-557.264
-570.747
-52.5274
-58.1202
-59.2406
-62.8653
-64.8818
-67.2397
-69.5105
-71.6726
-73.75
-75.7452
-77.6976
-79.5794
-81.3659
-83.1049
-84.7566
-86.3164
-87.8065
-89.2318
-90.6097
-91.9813
-93.3967
-94.921
-96.6165
-98.5692
-100.891
-103.739
-107.216
-111.405
-116.456
-122.539
-129.8
-138.35
-148.3
-159.799
-172.973
-187.917
-204.711
-223.436
-244.17
-266.963
-291.835
-318.78
-347.783
-378.819
-411.891
-447.602
-484.986
-522.141
-553.234
-565.893
-69.2502
-74.2909
-75.3092
-78.8085
-80.9642
-83.7379
-86.3496
-88.9844
-91.6707
-94.3933
-97.0793
-99.7242
-102.379
-104.956
-107.458
-109.901
-112.266
-114.56
-116.795
-119.001
-121.206
-123.466
-125.873
-128.53
-131.518
-134.912
-138.846
-143.478
-148.922
-155.28
-162.66
-171.203
-181.06
-192.308
-205.015
-219.269
-235.145
-252.69
-271.91
-292.811
-315.408
-339.67
-365.497
-392.758
-421.692
-452.129
-482.716
-511.065
-531.763
-543.729
-86.8798
-91.0952
-92.0644
-95.4253
-97.7367
-100.857
-104.001
-107.251
-110.607
-114.036
-117.563
-121.142
-124.693
-128.193
-131.654
-135.022
-138.287
-141.463
-144.549
-147.557
-150.525
-153.499
-156.555
-159.725
-163.104
-166.833
-171.028
-175.761
-181.161
-187.375
-194.533
-202.738
-212.052
-222.573
-234.4
-247.578
-262.123
-278.035
-295.323
-313.979
-333.937
-355.098
-377.355
-400.564
-424.859
-449.163
-471.891
-489.54
-497.876
-505.863
-104.611
-108.065
-109.026
-112.405
-115.002
-118.571
-122.291
-126.177
-130.337
-134.667
-139.101
-143.634
-148.172
-152.695
-157.146
-161.493
-165.717
-169.803
-173.73
-177.511
-181.162
-184.699
-188.194
-191.731
-195.378
-199.216
-203.334
-207.876
-212.97
-218.727
-225.243
-232.623
-241.011
-250.477
-261.041
-272.743
-285.61
-299.65
-314.799
-330.951
-348.024
-365.896
-384.333
-403.556
-422.741
-440.683
-456.113
-466.836
-471.663
-474.625
-122.243
-124.689
-125.78
-129.233
-132.136
-136.233
-140.566
-145.301
-150.295
-155.575
-161.105
-166.726
-172.38
-178.023
-183.573
-188.998
-194.248
-199.275
-204.071
-208.622
-212.927
-217.004
-220.901
-224.656
-228.302
-231.963
-235.774
-239.814
-244.199
-249.072
-254.586
-260.874
-267.987
-275.994
-284.992
-295.008
-306.023
-317.968
-330.784
-344.416
-358.685
-373.335
-388.387
-403.591
-418.221
-431.241
-441.157
-446.815
-452.981
-454.264
-138.719
-140.464
-141.65
-145.358
-148.687
-153.447
-158.553
-164.142
-170.217
-176.63
-183.273
-190.123
-197.037
-203.907
-210.68
-217.278
-223.63
-229.694
-235.41
-240.739
-245.672
-250.204
-254.342
-258.135
-261.675
-265.039
-268.269
-271.514
-274.942
-278.687
-282.871
-287.608
-293.084
-299.416
-306.623
-314.715
-323.681
-333.515
-344.134
-355.354
-367.041
-379.079
-391.174
-402.98
-413.986
-423.328
-429.867
-433.481
-436.142
-437.939
-153.584
-154.509
-156.173
-160.107
-164.068
-169.519
-175.485
-182.151
-189.326
-196.961
-204.998
-213.193
-221.5
-229.806
-237.953
-245.876
-253.502
-260.725
-267.458
-273.651
-279.261
-284.274
-288.7
-292.559
-295.849
-298.636
-301.098
-303.342
-305.484
-307.695
-310.178
-313.162
-316.764
-321.082
-326.244
-332.308
-339.263
-347.018
-355.509
-364.696
-374.384
-384.068
-393.696
-402.892
-411.083
-417.429
-421.309
-425.027
-425.9
-427.312
-166.024
-166.55
-168.617
-173.002
-177.628
-184.022
-190.979
-198.741
-207.265
-216.299
-225.723
-235.441
-245.344
-255.253
-265.019
-274.501
-283.552
-292.115
-300.046
-307.254
-313.67
-319.233
-323.919
-327.722
-330.7
-332.954
-334.527
-335.545
-336.217
-336.732
-337.298
-338.1
-339.4
-341.458
-344.403
-348.296
-353.129
-358.887
-365.592
-373.153
-380.963
-388.692
-396.419
-403.55
-409.212
-412.901
-416.019
-417.796
-418.865
-419.619
-175.647
-176.009
-178.67
-183.579
-188.93
-196.246
-204.326
-213.399
-223.242
-233.803
-244.861
-256.3
-267.968
-279.704
-291.346
-302.647
-313.424
-323.499
-332.827
-341.285
-348.72
-355.019
-360.16
-364.148
-366.956
-368.566
-369.138
-368.851
-367.849
-366.336
-364.571
-362.916
-361.684
-361.127
-361.487
-362.932
-365.588
-369.495
-374.548
-380.427
-386.707
-393.186
-399.374
-404.493
-408.016
-410.095
-411.686
-412.944
-413.922
-414.319
-181.287
-182.295
-185.779
-191.395
-197.586
-205.989
-215.125
-225.494
-236.918
-249.098
-261.901
-275.226
-288.854
-302.609
-316.277
-329.641
-342.468
-354.484
-365.586
-375.624
-384.374
-391.714
-397.565
-401.803
-404.447
-405.618
-405.354
-403.731
-400.961
-397.297
-393.058
-388.587
-384.255
-380.545
-377.884
-376.593
-376.811
-378.586
-381.862
-386.453
-391.939
-397.513
-402.147
-405.288
-407.081
-408.416
-409.02
-409.925
-410.696
-410.994
-182.909
-185.335
-189.607
-196.058
-203.139
-212.676
-222.949
-234.728
-247.604
-261.497
-276.239
-291.584
-307.382
-323.411
-339.407
-355.135
-370.337
-384.771
-398.07
-409.974
-420.346
-429.089
-435.997
-440.955
-443.963
-444.942
-443.9
-441.012
-436.457
-430.494
-423.432
-415.682
-407.842
-400.488
-394.205
-389.429
-386.508
-385.755
-387.358
-391.285
-396.367
-401.156
-404.498
-406.189
-407.111
-407.396
-407.721
-408.157
-408.606
-408.858
-180.157
-185.026
-190.012
-197.496
-205.534
-216.196
-227.526
-240.671
-255.141
-270.76
-287.371
-304.891
-323.039
-341.56
-360.186
-378.604
-396.517
-413.614
-429.484
-443.809
-456.45
-467.131
-475.642
-481.751
-485.324
-486.388
-484.965
-481.086
-474.921
-466.676
-456.688
-445.507
-433.654
-421.822
-410.855
-401.76
-394.892
-390.949
-390.609
-393.738
-398.69
-403.343
-406.398
-407.634
-407.693
-407.439
-407.065
-406.852
-406.784
-406.835
-173.898
-181.1
-186.875
-195.567
-204.593
-216.4
-228.785
-243.205
-259.108
-276.408
-294.997
-314.688
-335.279
-356.496
-377.998
-399.435
-420.412
-440.577
-459.563
-476.987
-492.457
-505.571
-516.1
-523.89
-528.733
-530.566
-529.245
-524.774
-517.189
-506.761
-493.934
-478.978
-462.525
-445.501
-429.025
-414.211
-401.844
-393.296
-390.211
-392.498
-397.723
-403.285
-406.847
-408.161
-407.853
-406.99
-406.012
-405.213
-404.745
-404.513
-164.154
-174.095
-180.378
-190.343
-200.491
-213.23
-226.521
-242.27
-259.457
-278.305
-298.736
-320.604
-343.67
-367.648
-392.209
-416.934
-441.383
-465.11
-487.704
-508.667
-527.458
-543.717
-557.103
-567.358
-574.074
-577.097
-576.443
-571.942
-563.61
-551.535
-535.828
-517.124
-496.118
-473.453
-450.094
-427.677
-407.843
-393.168
-386.646
-387.297
-392.835
-399.25
-404.248
-406.279
-406.268
-405.49
-404.449
-403.416
-402.726
-402.154
-152.492
-164.352
-171.115
-182.145
-193.233
-206.605
-220.986
-237.787
-256.134
-276.423
-298.551
-322.442
-347.894
-374.659
-402.378
-430.619
-458.857
-486.539
-513.162
-538.195
-561.051
-581.228
-598.269
-611.58
-620.934
-626.106
-626.886
-623.151
-614.735
-601.425
-583.604
-561.626
-535.792
-506.716
-475.972
-444.925
-415.847
-393.692
-381.676
-379.537
-384.143
-391.629
-397.828
-402.387
-404.687
-405.138
-404.416
-403.398
-402.569
-401.752
-139.097
-152.73
-159.969
-171.658
-183.261
-197.053
-212.297
-229.947
-249.168
-270.707
-294.374
-320.115
-347.794
-377.229
-408.1
-439.947
-472.185
-504.179
-535.306
-564.971
-592.546
-617.36
-638.749
-656.06
-668.967
-677.001
-679.953
-677.762
-670.166
-657.028
-637.746
-612.795
-582.722
-548.303
-510.325
-469.405
-429.737
-398.534
-379.482
-373.146
-375.932
-384.566
-393.655
-400.747
-404.934
-406.485
-406.245
-405.308
-404.469
-403.738
-126.08
-139.584
-147.402
-159.374
-171.169
-185.2
-200.907
-218.902
-238.894
-261.394
-286.29
-313.617
-343.342
-375.275
-409.166
-444.613
-480.973
-517.509
-553.514
-588.295
-621.144
-651.285
-677.892
-700.261
-717.617
-729.522
-735.733
-735.921
-730.068
-717.963
-698.767
-672.35
-639.389
-600.332
-554.122
-502.327
-454.072
-414.292
-388.573
-375.356
-373.616
-381.308
-391.862
-400.349
-405.756
-407.999
-408.127
-407.379
-406.84
-406.499
-114.345
-125.704
-134.538
-146.173
-157.808
-171.795
-187.445
-205.571
-225.903
-248.884
-274.571
-303.132
-334.611
-368.807
-405.539
-444.476
-484.902
-526.078
-567.233
-607.53
-646.169
-682.303
-714.94
-743.165
-766.02
-782.837
-793.212
-796.995
-793.596
-783.31
-766.423
-740.083
-705.775
-660.88
-606.289
-548.666
-492.7
-447.81
-414.612
-394.536
-386.962
-387.778
-393.789
-400.008
-404.815
-407.386
-408.241
-408.25
-408.275
-408.386
-108.27
-111.881
-121.61
-132.474
-143.972
-157.711
-172.963
-190.772
-210.885
-233.86
-259.857
-289.137
-321.936
-358.023
-397.263
-439.514
-483.913
-529.769
-576.244
-622.388
-667.194
-709.864
-749.196
-784.148
-813.649
-836.43
-852.022
-860.615
-861.131
-853.439
-838.225
-815.348
-776.804
-727.789
-667.188
-606.899
-549.376
-498.721
-459.059
-433.179
-417.202
-409.401
-406.843
-406.644
-407.276
-408.042
-408.502
-409.026
-409.452
-409.923
-121.96
-101.862
-109.944
-119.635
-130.718
-143.921
-158.783
-176.009
-195.451
-217.888
-243.731
-273.306
-306.855
-344.39
-385.525
-430.226
-478.062
-528.45
-580.231
-632.406
-683.713
-733.16
-779.53
-821.602
-858.635
-888.681
-910.512
-924.605
-932.002
-926.017
-908.883
-888.129
-852.33
-799.413
-739.66
-677.661
-618.321
-567.647
-525.822
-491.149
-464.437
-445.176
-431.585
-422.37
-416.204
-412.36
-410.668
-410.578
-411.332
-412.174
-101.524
-88.3407
-97.616
-108.204
-119.726
-132.406
-146.611
-162.996
-181.676
-203.878
-230.014
-260.116
-294.67
-334.407
-378.791
-426.418
-478.2
-533.969
-592.435
-652.278
-711.749
-768.818
-823.005
-872.755
-916.462
-953.439
-982.37
-1003.17
-1015.3
-1014.7
-1005.13
-973.467
-923.247
-865.514
-805.538
-741.148
-682.775
-629.174
-583.018
-542.744
-509.643
-483.001
-461.659
-444.656
-431.17
-421.289
-415.296
-413.062
-414.231
-415.525
-88.7653
-87.9704
-94.2495
-103.005
-114.174
-126.845
-141.824
-159.524
-179.851
-204.222
-232.83
-266.087
-304.804
-349.763
-400.29
-455.731
-515.214
-577.649
-642.482
-708.985
-775.142
-839.22
-899.119
-954.073
-1002.44
-1041.43
-1071.25
-1090.01
-1098.79
-1089.26
-1057.81
-1014.9
-963.386
-905.533
-845.136
-783.668
-725.674
-672.25
-624.891
-582.936
-546.165
-514.712
-488.055
-465.893
-447.755
-433.58
-423.694
-418.777
-418.198
-420.443
-80.342
-87.2427
-93.6979
-101.958
-113.11
-126.832
-144.017
-163.962
-187.331
-215.001
-247.775
-286.968
-332.921
-384.954
-442.764
-506.097
-574.034
-645.477
-719.018
-792.844
-864.994
-933.971
-998.495
-1055.2
-1103.4
-1142.18
-1168.09
-1177.33
-1167.58
-1143.16
-1105.99
-1059.38
-1006.03
-947.948
-887.171
-828.562
-771.452
-717.125
-666.125
-620.091
-578.789
-542.728
-511.627
-485.433
-463.886
-446.81
-434.24
-426.566
-423.989
-428.013
-73.9834
-82.467
-90.9594
-100.737
-112.6
-127.554
-146.116
-168.149
-194.722
-226.582
-265.273
-311.15
-363.757
-423.709
-491.026
-564.843
-643.833
-726.152
-809.52
-890.961
-968.944
-1040.89
-1107.69
-1167.09
-1213.69
-1247.16
-1259.34
-1252.22
-1231.39
-1199.46
-1158.04
-1108.78
-1053.22
-994.421
-933.619
-872.339
-811.979
-754.157
-699.573
-649.418
-604.168
-564.152
-529.664
-500.626
-476.886
-458.14
-444.13
-435.015
-431.826
-435.146
-67.1987
-75.8617
-85.4937
-96.0785
-108.55
-125.058
-144.913
-169.73
-200.023
-236.134
-279.53
-331.595
-392.946
-464.338
-544.304
-631.034
-722.248
-815.566
-908.118
-996.778
-1080.07
-1157.94
-1227.88
-1285.9
-1322.48
-1337.65
-1336.62
-1321.18
-1293.58
-1255.37
-1208.65
-1155.67
-1097.15
-1035.36
-971.553
-906.515
-842.979
-781.286
-723.203
-669.327
-620.654
-577.622
-540.55
-509.565
-484.466
-464.946
-450.609
-441.315
-437.743
-439.208
-58.7727
-67.192
-76.6049
-87.8621
-100.814
-118.352
-140.465
-167.821
-201.195
-240.913
-289.6
-350.084
-424.005
-509.439
-603.76
-704.237
-808.295
-912.745
-1014.42
-1112.34
-1204.95
-1286.2
-1349.13
-1389.86
-1410.85
-1414.47
-1403.77
-1380.25
-1345.99
-1301.97
-1250.12
-1192.83
-1130.35
-1063.86
-996.514
-927.954
-860.72
-795.728
-734.281
-677.496
-626.14
-580.905
-542.171
-510.029
-484.331
-464.705
-450.687
-441.91
-438.339
-438.852
-48.6598
-56.1412
-64.323
-75.4169
-89.4244
-107.835
-131.725
-159.944
-195.295
-240.556
-298.176
-370.579
-458.494
-558.824
-668.644
-784.411
-902.613
-1020.44
-1134.91
-1240.88
-1333.8
-1401.33
-1444.74
-1470.58
-1480.88
-1475.4
-1456.45
-1424.98
-1384.06
-1334.66
-1277.18
-1214.55
-1147.8
-1077.64
-1006.15
-934.542
-863.627
-795.77
-731.761
-672.674
-619.529
-572.961
-533.336
-500.761
-475.01