/*--------------------------------*- C++ -*----------------------------------*\
| =========                 |                                                 |
| \\      /  F ield         | OpenFOAM: The Open Source CFD Toolbox           |
|  \\    /   O peration     | Version:  v1912                                 |
|   \\  /    A nd           | Website:  www.openfoam.com                      |
|    \\/     M anipulation  |                                                 |
\*---------------------------------------------------------------------------*/
FoamFile
{
    version     2.0;
    format      ascii;
    class       surfaceScalarField;
    location    "0.24";
    object      phi;
}
// * * * * * * * * * * * * * * * * * * * * * * * * * * * * * * * * * * * * * //

dimensions      [0 3 -1 0 0 0 0];
oriented        oriented;


internalField   nonuniform List<scalar> 
13060
(
0.00550048
0.988761
-0.994262
0.00698252
0.946513
-0.947995
0.00782249
0.901116
-0.901956
0.00820554
0.858524
-0.858907
0.00815686
0.818958
-0.818909
0.00773449
0.781523
-0.7811
0.00707384
0.745872
-0.745211
0.00620001
0.711717
-0.710844
0.00545976
0.67884
-0.6781
0.00490783
0.647401
-0.646849
0.00427026
0.617321
-0.616684
0.00372402
0.588514
-0.587968
0.00334516
0.560813
-0.560435
0.00305754
0.534336
-0.534048
0.00283736
0.508889
-0.508669
0.00267621
0.484373
-0.484212
0.00256945
0.460878
-0.460771
0.00250203
0.438257
-0.438189
0.00246763
0.41662
-0.416586
0.00245239
0.395875
-0.39586
0.00246084
0.376028
-0.376037
0.00255181
0.356985
-0.357076
0.002924
0.338601
-0.338973
0.00325243
0.321156
-0.321484
0.00334195
0.304719
-0.304809
0.00335826
0.288836
-0.288852
0.00337146
0.273589
-0.273603
0.00329107
0.259217
-0.259137
0.00312267
0.245619
-0.24545
0.00296212
0.232638
-0.232478
0.00280102
0.220349
-0.220188
0.0026107
0.208735
-0.208544
0.00236047
0.197744
-0.197494
0.0020768
0.187301
-0.187018
0.0017693
0.177472
-0.177164
0.00140376
0.168282
-0.167917
0.000996577
0.159685
-0.159278
0.000573182
0.151619
-0.151196
0.000128087
0.144047
-0.143602
-0.000393687
0.13701
-0.136488
-0.000911541
0.130388
-0.12987
-0.00141522
0.124186
-0.123682
-0.00191463
0.118407
-0.117908
-0.00237783
0.113084
-0.112621
-0.0028021
0.108108
-0.107684
-0.00313345
0.103507
-0.103175
-0.00351419
0.0988965
-0.0985158
-0.00348021
0.095113
-0.095147
-0.00249462
0.0862999
-0.0872855
0.056938
-0.0594326
0.00553261
0.983229
0.00576169
0.946284
0.00522224
0.901655
0.00422767
0.859518
0.00343259
0.819753
0.00274633
0.782209
0.00222858
0.74639
0.00176852
0.712177
0.00124918
0.679359
0.000610924
0.64804
0.000141981
0.61779
-0.000268711
0.588925
-0.000736104
0.561281
-0.00116735
0.534767
-0.00153612
0.509258
-0.00183956
0.484677
-0.0020828
0.461121
-0.00227785
0.438452
-0.0024216
0.416764
-0.00252376
0.395978
-0.00260154
0.376106
-0.00271287
0.357096
-0.0030835
0.338972
-0.00351027
0.321582
-0.00356846
0.304778
-0.00353338
0.288801
-0.00360182
0.273658
-0.00360889
0.259224
-0.00352358
0.245534
-0.00352152
0.232636
-0.00358693
0.220414
-0.00366958
0.208817
-0.00376013
0.197835
-0.00389193
0.187433
-0.00407425
0.177654
-0.00426474
0.168473
-0.0044691
0.159889
-0.00469471
0.151845
-0.00493547
0.144288
-0.00514617
0.137221
-0.00535881
0.130601
-0.00555264
0.12438
-0.00570003
0.118555
-0.00578483
0.113169
-0.00579349
0.108117
-0.00570986
0.103423
-0.00562638
0.0988131
-0.00489335
0.09438
-0.00322699
0.0846336
0.053711
0.00484956
0.978379
0.00518424
0.945949
0.00458942
0.90225
0.00329619
0.860811
0.0017838
0.821265
0.000171867
0.783821
-0.00141994
0.747981
-0.00302047
0.713778
-0.00432831
0.680667
-0.00542
0.649131
-0.0065555
0.618926
-0.00751455
0.589884
-0.00825556
0.562022
-0.00886809
0.535379
-0.00937594
0.509766
-0.0098006
0.485101
-0.0101429
0.461464
-0.0104209
0.43873
-0.0106443
0.416987
-0.0108248
0.396158
-0.010957
0.376238
-0.0109817
0.357121
-0.0105912
0.338581
-0.0102385
0.32123
-0.0102243
0.304764
-0.0101757
0.288752
-0.01002
0.273502
-0.0099945
0.259199
-0.0100489
0.245588
-0.0100289
0.232616
-0.00998855
0.220374
-0.00996269
0.208791
-0.00995286
0.197825
-0.00993953
0.18742
-0.00991472
0.177629
-0.00991412
0.168472
-0.00991977
0.159895
-0.00990961
0.151834
-0.00989255
0.14427
-0.00985708
0.137185
-0.00976765
0.130511
-0.00961879
0.124231
-0.00941687
0.118353
-0.00913222
0.112884
-0.0087505
0.107735
-0.0082482
0.102921
-0.00762404
0.0981889
-0.00631586
0.0930718
-0.00397149
0.0822892
0.0497395
0.00368206
0.974697
0.00243502
0.947196
0.000268322
0.904417
-0.00167844
0.862758
-0.00353465
0.823121
-0.00502173
0.785308
-0.00634304
0.749303
-0.00750054
0.714936
-0.00868933
0.681856
-0.00978465
0.650227
-0.0106648
0.619806
-0.0115184
0.590737
-0.0123559
0.562859
-0.0131035
0.536127
-0.013754
0.510417
-0.0143139
0.485661
-0.0147879
0.461938
-0.015185
0.439127
-0.0155017
0.417304
-0.0157404
0.396397
-0.0159125
0.37641
-0.0160895
0.357298
-0.0165338
0.339026
-0.0169358
0.321632
-0.0169554
0.304783
-0.0169366
0.288733
-0.0169837
0.273549
-0.0168745
0.25909
-0.0166605
0.245374
-0.0165046
0.23246
-0.0163703
0.22024
-0.0162229
0.208644
-0.0160496
0.197652
-0.0158802
0.18725
-0.015725
0.177474
-0.0155397
0.168287
-0.0153288
0.159684
-0.0150969
0.151603
-0.0148171
0.143991
-0.0144738
0.136842
-0.0140803
0.130118
-0.0136221
0.123773
-0.013071
0.117802
-0.0124195
0.112233
-0.0116532
0.106969
-0.0106942
0.101962
-0.00965637
0.097151
-0.00791645
0.0913319
-0.00477613
0.0791489
0.0449634
0.0025079
0.972189
0.00130989
0.948394
-0.000911083
0.906638
-0.00303323
0.86488
-0.00549252
0.825581
-0.00805498
0.78787
-0.0104758
0.751724
-0.0127363
0.717196
-0.0146096
0.683729
-0.0162508
0.651868
-0.0178762
0.621431
-0.019246
0.592107
-0.0203522
0.563966
-0.0212924
0.537067
-0.0220932
0.511217
-0.0227698
0.486338
-0.0233347
0.462503
-0.0237967
0.439589
-0.024161
0.417668
-0.0244366
0.396672
-0.0246243
0.376598
-0.0246656
0.357339
-0.0242971
0.338657
-0.0238811
0.321216
-0.0238033
0.304705
-0.0236971
0.288627
-0.0234327
0.273285
-0.0232744
0.258931
-0.0231906
0.24529
-0.0229969
0.232267
-0.0227353
0.219978
-0.0224565
0.208365
-0.0221693
0.197364
-0.0218381
0.186919
-0.0214559
0.177092
-0.0210601
0.167891
-0.0206254
0.15925
-0.0201305
0.151108
-0.0195831
0.143443
-0.0189848
0.136244
-0.0182926
0.129426
-0.0175001
0.12298
-0.0166232
0.116925
-0.015632
0.111241
-0.0145298
0.105867
-0.0133162
0.100748
-0.01182
0.0956549
-0.00952969
0.0890416
-0.00558845
0.0752076
0.0393749
0.00093429
0.971255
-0.00218259
0.951511
-0.00555036
0.910005
-0.00854395
0.867874
-0.0112281
0.828265
-0.0134657
0.790108
-0.0155217
0.75378
-0.0173441
0.719018
-0.0191799
0.685565
-0.0207884
0.653476
-0.0220485
0.622691
-0.0232658
0.593324
-0.0244393
0.565139
-0.0254935
0.538121
-0.0264115
0.512135
-0.0272046
0.487131
-0.0278775
0.463176
-0.0284434
0.440155
-0.028903
0.418128
-0.0292623
0.397032
-0.0295313
0.376867
-0.0297809
0.357589
-0.0303269
0.339203
-0.0307604
0.321649
-0.0307069
0.304652
-0.0305859
0.288506
-0.0305493
0.273248
-0.0302953
0.258678
-0.0298733
0.244868
-0.0295003
0.231894
-0.0291179
0.219596
-0.0286778
0.207925
-0.028173
0.19686
-0.0276437
0.18639
-0.0270972
0.176545
-0.0264866
0.16728
-0.0258118
0.158575
-0.0250783
0.150374
-0.0242693
0.142634
-0.0233594
0.135334
-0.0223713
0.128437
-0.0213049
0.121914
-0.020127
0.115747
-0.0188287
0.109943
-0.0174037
0.104442
-0.0159831
0.0993276
-0.0140383
0.0937101
-0.0112271
0.0862303
-0.00639805
0.0703786
0.0329769
0.00029748
0.970957
-0.00315733
0.954966
-0.00686183
0.91371
-0.0101059
0.871118
-0.0135411
0.8317
-0.0169388
0.793506
-0.020107
0.756948
-0.0229597
0.721871
-0.0253968
0.688002
-0.0276429
0.655722
-0.0298296
0.624878
-0.0316454
0.59514
-0.0331322
0.566626
-0.0344155
0.539405
-0.0355201
0.51324
-0.0364645
0.488075
-0.037252
0.463963
-0.0378889
0.440792
-0.0383816
0.418621
-0.0387365
0.397387
-0.0389476
0.377078
-0.0389357
0.357577
-0.0384849
0.338752
-0.0379598
0.321124
-0.0377863
0.304478
-0.0375478
0.288268
-0.0370911
0.272791
-0.0367277
0.258314
-0.0364202
0.244561
-0.0359665
0.23144
-0.0354117
0.219041
-0.0348027
0.207316
-0.0341527
0.19621
-0.0334273
0.185665
-0.0326208
0.175739
-0.0317673
0.166427
-0.0308492
0.157657
-0.0298476
0.149373
-0.0287665
0.141553
-0.0276196
0.134187
-0.0263721
0.12719
-0.0250139
0.120556
-0.0235819
0.114315
-0.0220729
0.108434
-0.0204697
0.102839
-0.0187036
0.0975615
-0.0163754
0.0913819
-0.0129325
0.0827873
-0.00714328
0.0645894
0.0258336
-0.00101757
0.971975
-0.0065364
0.960485
-0.0113705
0.918544
-0.0157014
0.875449
-0.019347
0.835346
-0.0223586
0.796517
-0.0250413
0.759631
-0.0275676
0.724397
-0.0299958
0.69043
-0.0320441
0.657771
-0.0337166
0.626551
-0.0353373
0.596761
-0.0368888
0.568177
-0.038275
0.540791
-0.0394865
0.514452
-0.040531
0.48912
-0.0414143
0.464846
-0.0421522
0.44153
-0.0427468
0.419215
-0.043205
0.397845
-0.0435505
0.377424
-0.0438918
0.357918
-0.0444887
0.339349
-0.0449014
0.321537
-0.0447506
0.304327
-0.0444596
0.287977
-0.044228
0.27256
-0.043754
0.25784
-0.0430678
0.243875
-0.0423842
0.230756
-0.0416668
0.218323
-0.0408627
0.206512
-0.0399546
0.195302
-0.0389952
0.184705
-0.0380011
0.174745
-0.0369262
0.165352
-0.0357666
0.156497
-0.0345321
0.148138
-0.0332204
0.140241
-0.0317983
0.132765
-0.0302943
0.125686
-0.0287354
0.118997
-0.027079
0.112659
-0.0253169
0.106672
-0.0236209
0.101143
-0.0214751
0.0954157
-0.0187566
0.0886634
-0.0145144
0.0785452
-0.00783731
0.0579123
0.0179963
-0.0016229
0.973598
-0.00721203
0.966074
-0.0124669
0.923799
-0.0170914
0.880074
-0.021442
0.839696
-0.025741
0.800816
-0.029647
0.763537
-0.0330613
0.727812
-0.0360267
0.693396
-0.0389242
0.660668
-0.0416849
0.629311
-0.0440013
0.599077
-0.0459412
0.570117
-0.0476305
0.54248
-0.0490853
0.515906
-0.050329
0.490363
-0.0513635
0.465881
-0.0521922
0.442358
-0.0528239
0.419847
-0.0532661
0.398287
-0.0534988
0.377656
-0.0534083
0.357828
-0.0528262
0.338767
-0.052153
0.320863
-0.0518061
0.303981
-0.051396
0.287567
-0.0507088
0.271873
-0.0500526
0.257184
-0.0494418
0.243264
-0.0486671
0.229982
-0.0477473
0.217404
-0.04674
0.205505
-0.0456764
0.194238
-0.044521
0.18355
-0.0432647
0.173488
-0.0419451
0.164032
-0.0405577
0.15511
-0.0390884
0.146669
-0.0375297
0.138683
-0.0359135
0.131149
-0.0342236
0.123996
-0.0324393
0.117212
-0.0306227
0.110842
-0.0288076
0.104857
-0.0268406
0.0991755
-0.0242917
0.0928668
-0.0209403
0.085312
-0.015559
0.0731638
-0.00732345
0.0496767
0.0106728
-0.00307535
0.976673
-0.0104684
0.973467
-0.0166405
0.929971
-0.02214
0.885573
-0.0267514
0.844308
-0.0305335
0.804598
-0.0339682
0.766971
-0.0371746
0.731018
-0.040293
0.696514
-0.0428005
0.663176
-0.0448985
0.631409
-0.0469597
0.601139
-0.0489457
0.572103
-0.0507246
0.544259
-0.0522887
0.51747
-0.0536398
0.491715
-0.0547828
0.467024
-0.0557344
0.44331
-0.0564978
0.42061
-0.0570778
0.398867
-0.0575092
0.378088
-0.0579271
0.358245
-0.0585443
0.339385
-0.0589279
0.321247
-0.0586321
0.303685
-0.0580906
0.287025
-0.0576097
0.271392
-0.0568888
0.256463
-0.0558894
0.242264
-0.0548355
0.228928
-0.0537362
0.216304
-0.052537
0.204306
-0.0512074
0.192908
-0.049815
0.182157
-0.0483886
0.172062
-0.0468811
0.162525
-0.0452855
0.153514
-0.0436151
0.144998
-0.0418904
0.136958
-0.0400706
0.129329
-0.0381731
0.122099
-0.0362552
0.115294
-0.034283
0.10887
-0.0323529
0.102927
-0.0299848
0.0968074
-0.0271391
0.0900211
-0.0228876
0.0810605
-0.0157396
0.0660159
-0.00542813
0.0393653
0.00524469
-0.00415755
0.980831
-0.0110625
0.980372
-0.0172205
0.936129
-0.0229768
0.891329
-0.0282879
0.849619
-0.0333637
0.809674
-0.037935
0.771543
-0.0420125
0.735096
-0.0456036
0.700105
-0.0491598
0.666732
-0.0525537
0.634803
-0.0554303
0.604015
-0.057883
0.574556
-0.0600346
0.546411
-0.0619116
0.519348
-0.0635242
0.493327
-0.0648741
0.468374
-0.0659571
0.444393
-0.0667807
0.421434
-0.0673537
0.39944
-0.0676409
0.378375
-0.0675166
0.358121
-0.0668116
0.33868
-0.0659496
0.320385
-0.0654083
0.303144
-0.0648425
0.286459
-0.0639071
0.270456
-0.0629075
0.255463
-0.0619586
0.241315
-0.0608514
0.227821
-0.059556
0.215009
-0.0581412
0.202891
-0.0566756
0.191443
-0.0551244
0.180606
-0.0534643
0.170402
-0.051738
0.160798
-0.049957
0.151733
-0.0481176
0.143159
-0.0461928
0.135033
-0.0442236
0.12736
-0.0422238
0.120099
-0.0401475
0.113218
-0.0381898
0.106912
-0.0359758
0.100713
-0.0332416
0.0940732
-0.0296077
0.0863872
-0.0240165
0.0754693
-0.0151719
0.0571713
-0.00335973
0.0275531
0.00188496
-0.00510311
0.985934
-0.0136174
0.988886
-0.0205696
0.943081
-0.0269823
0.897742
-0.0324408
0.855077
-0.0370214
0.814255
-0.0411832
0.775704
-0.0452023
0.739115
-0.0488701
0.703773
-0.0519416
0.669803
-0.0545462
0.637408
-0.0571591
0.606628
-0.0596625
0.577059
-0.0619284
0.548676
-0.0639461
0.521365
-0.0657088
0.49509
-0.0672184
0.469883
-0.0684845
0.445659
-0.0695048
0.422454
-0.0702819
0.400217
-0.0708551
0.378948
-0.071367
0.358633
-0.072033
0.339346
-0.0724258
0.320778
-0.0720062
0.302724
-0.0711838
0.285637
-0.0704353
0.269708
-0.0694847
0.254513
-0.0681831
0.240014
-0.0667527
0.22639
-0.0652765
0.213533
-0.0637137
0.201328
-0.0620079
0.189737
-0.0602371
0.178835
-0.0584476
0.168612
-0.0565916
0.158942
-0.0546586
0.1498
-0.0526572
0.141158
-0.0506327
0.133009
-0.0485541
0.125281
-0.0463972
0.117942
-0.0443626
0.111183
-0.0422308
0.10478
-0.0396112
0.0980933
-0.0363882
0.0908502
-0.031828
0.081827
-0.0245989
0.0682402
-0.0137792
0.0463517
-0.00207474
0.0158486
-0.000189784
-0.0057032
0.991637
-0.0133887
0.996572
-0.0203068
0.949999
-0.0267448
0.90418
-0.0327404
0.861073
-0.0385654
0.82008
-0.0438184
0.780957
-0.0483923
0.743689
-0.0526826
0.708063
-0.0569731
0.674094
-0.0611324
0.641567
-0.0647173
0.610213
-0.0678499
0.580192
-0.0706319
0.551458
-0.0730788
0.523812
-0.0752137
0.497225
-0.0770233
0.471693
-0.0784988
0.447135
-0.0796458
0.423601
-0.0804621
0.401034
-0.0809033
0.379389
-0.0808441
0.358574
-0.0800931
0.338595
-0.0790885
0.319773
-0.0783798
0.302015
-0.0777185
0.284976
-0.0765953
0.268584
-0.07526
0.253178
-0.0739752
0.238729
-0.0725703
0.224985
-0.0709456
0.211908
-0.0691649
0.199547
-0.0673531
0.187925
-0.0654827
0.176965
-0.0635022
0.166632
-0.0614616
0.156902
-0.0593865
0.147725
-0.0572908
0.139062
-0.0551284
0.130846
-0.0529219
0.123074
-0.0508311
0.115851
-0.0487556
0.109108
-0.0462821
0.102307
-0.0434394
0.0952506
-0.0396749
0.0870857
-0.0338555
0.0760075
-0.0243395
0.0587242
-0.010363
0.0323751
-0.00124303
0.00672869
-0.00143282
-0.0056235
0.997261
-0.0148183
1.00577
-0.0224154
0.957596
-0.029256
0.911021
-0.0350418
0.866859
-0.0402186
0.825256
-0.0451535
0.785892
-0.0499237
0.748459
-0.0543464
0.712486
-0.0581005
0.677848
-0.0614047
0.644871
-0.064713
0.613521
-0.0678988
0.583378
-0.0708629
0.554423
-0.0735484
0.526498
-0.0759267
0.499603
-0.0779988
0.473765
-0.07977
0.448906
-0.0812248
0.425056
-0.0823621
0.402171
-0.0832183
0.380245
-0.0839347
0.35929
-0.0847484
0.339408
-0.0852539
0.320279
-0.0848479
0.301609
-0.0838048
0.283933
-0.0827919
0.267571
-0.0816674
0.252053
-0.0801312
0.237193
-0.0783618
0.223216
-0.0765342
0.21008
-0.0746629
0.197676
-0.0726561
0.185918
-0.0705791
0.174888
-0.0685079
0.164561
-0.0664004
0.154794
-0.0642443
0.145569
-0.0620248
0.136842
-0.0597984
0.12862
-0.0576499
0.120926
-0.0555696
0.113771
-0.0532158
0.106754
-0.0505463
0.0996373
-0.0471957
0.0919
-0.0422505
0.0821405
-0.0339209
0.067678
-0.0209628
0.0457661
-0.0061215
0.0175338
-0.000671387
0.00127858
-0.00210421
-0.00557444
1.00284
-0.0132871
1.01348
-0.0202902
0.964599
-0.0272621
0.917992
-0.033663
0.87326
-0.0399754
0.831569
-0.0457371
0.791654
-0.0509634
0.753685
-0.0559414
0.717464
-0.0610209
0.682927
-0.0660752
0.649925
-0.0705908
0.618037
-0.074631
0.587418
-0.0783124
0.558104
-0.0816256
0.529811
-0.0845579
0.502535
-0.0870889
0.476296
-0.0892167
0.451034
-0.0909384
0.426778
-0.0922325
0.403465
-0.0930477
0.38106
-0.0932644
0.359507
-0.0926539
0.338798
-0.0916141
0.319239
-0.0908229
0.300818
-0.0901626
0.283272
-0.0890028
0.266412
-0.0874249
0.250475
-0.0858209
0.235589
-0.0841453
0.22154
-0.0822548
0.20819
-0.0801616
0.195583
-0.0780527
0.18381
-0.075933
0.172768
-0.0737128
0.162341
-0.0714413
0.152523
-0.0691564
0.143284
-0.0669029
0.134589
-0.0646804
0.126397
-0.062559
0.118805
-0.0602744
0.111486
-0.0577151
0.104195
-0.0546365
0.0965587
-0.0502671
0.0875307
-0.0429976
0.074871
-0.0311537
0.0558341
-0.0142214
0.0288338
-0.00296801
0.00628041
-5.78901e-05
-0.00163154
-0.0021621
-0.00469987
1.00753
-0.0135737
1.02235
-0.0209025
0.971928
-0.0277234
0.924813
-0.03376
0.879296
-0.0393766
0.837185
-0.0448454
0.797123
-0.0502969
0.759136
-0.0555076
0.722675
-0.0601378
0.687558
-0.0643
0.654088
-0.0684627
0.6222
-0.0725838
0.591539
-0.0764856
0.562006
-0.0801457
0.533471
-0.0834688
0.505858
-0.0864283
0.479255
-0.0890129
0.453618
-0.0911932
0.428958
-0.0929762
0.405248
-0.0943884
0.382473
-0.0955483
0.360667
-0.0967057
0.339955
-0.0975549
0.320088
-0.0973854
0.300648
-0.0963038
0.282191
-0.0950766
0.265184
-0.0937976
0.249196
-0.0921303
0.233922
-0.0900916
0.219502
-0.0879192
0.206017
-0.0857573
0.193421
-0.0834947
0.181547
-0.0811432
0.170417
-0.0788285
0.160026
-0.0765357
0.15023
-0.0742527
0.141001
-0.0719516
0.132288
-0.0697757
0.124221
-0.0675286
0.116557
-0.0650315
0.108989
-0.0621165
0.10128
-0.0581446
0.0925867
-0.0515661
0.0809522
-0.0404042
0.0637091
-0.0232744
0.0387043
-0.00732712
0.0128864
-0.00131863
0.000271921
9.41227e-05
-0.00304429
-0.00206797
-0.00366624
1.0112
-0.010256
1.02894
-0.0167836
0.978456
-0.023483
0.931513
-0.0300037
0.885817
-0.0365593
0.843741
-0.0427554
0.803319
-0.0485989
0.76498
-0.0543614
0.728437
-0.0603375
0.693534
-0.0664043
0.660155
-0.0720604
0.627856
-0.0772709
0.596749
-0.0821265
0.566862
-0.086618
0.537962
-0.0907381
0.509978
-0.0944078
0.482925
-0.0975731
0.456783
-0.100245
0.43163
-0.102384
0.407387
-0.103943
0.384031
-0.104809
0.361533
-0.104678
0.339825
-0.103783
0.319193
-0.103036
0.299901
-0.102524
0.281679
-0.101536
0.264196
-0.0998819
0.247542
-0.0979804
0.23202
-0.0960154
0.217536
-0.0938897
0.203892
-0.0915073
0.191038
-0.0890756
0.179115
-0.0867044
0.168045
-0.084279
0.157601
-0.0818277
0.147779
-0.079388
0.138561
-0.0771112
0.130011
-0.074846
0.121956
-0.072351
0.114062
-0.0695091
0.106147
-0.0657692
0.09754
-0.0597022
0.0865198
-0.0491369
0.0703868
-0.0321598
0.0467321
-0.0131393
0.0196837
-0.00322444
0.00297158
-0.000275497
-0.00267702
0.000204313
-0.00352411
-0.00186366
-0.00184898
1.01305
-0.00897155
1.03607
-0.0155096
0.984994
-0.0218094
0.937813
-0.0275838
0.891591
-0.0333424
0.8495
-0.0392338
0.809211
-0.0453399
0.771086
-0.0513753
0.734473
-0.0570054
0.699164
-0.0622172
0.665366
-0.0675352
0.633174
-0.0729121
0.602126
-0.0780805
0.57203
-0.0829796
0.542861
-0.0876039
0.514603
-0.0918986
0.48722
-0.0957303
0.460615
-0.0990622
0.434962
-0.101887
0.410212
-0.10421
0.386355
-0.106129
0.363452
-0.107919
0.341614
-0.109494
0.320768
-0.109971
0.300378
-0.10913
0.280838
-0.107772
0.262838
-0.106346
0.246117
-0.104626
0.2303
-0.102412
0.215323
-0.0998678
0.201348
-0.097338
0.188509
-0.0947858
0.176563
-0.0921108
0.16537
-0.0894836
0.154974
-0.0869854
0.14528
-0.0846139
0.13619
-0.0822762
0.127673
-0.0797416
0.119422
-0.0769013
0.111222
-0.0732782
0.102524
-0.0676176
0.0918793
-0.0575528
0.076455
-0.0405373
0.0533713
-0.0193549
0.0255497
-0.00562394
0.00595276
-0.000893507
-0.00175886
0.000339555
-0.00391008
0.000296738
-0.00348129
-0.00156692
0.000479952
1.01257
-0.00432131
1.04087
-0.00959098
0.990263
-0.0156109
0.943833
-0.0216066
0.897587
-0.028151
0.856044
-0.0345401
0.8156
-0.0408027
0.777349
-0.0472382
0.740908
-0.0541291
0.706055
-0.0613313
0.672569
-0.0682695
0.640112
-0.074829
0.608686
-0.0811796
0.578381
-0.0872729
0.548955
-0.09296
0.52029
-0.0982043
0.492464
-0.102947
0.465358
-0.107104
0.439119
-0.110607
0.413716
-0.11341
0.389158
-0.11539
0.365431
-0.116267
0.342492
-0.115917
0.320418
-0.115359
0.29982
-0.115132
0.280611
-0.114556
0.262262
-0.113078
0.244639
-0.110945
0.228167
-0.108604
0.212982
-0.106196
0.19894
-0.103497
0.18581
-0.100604
0.173669
-0.0978211
0.162588
-0.0951125
0.152265
-0.0924465
0.142614
-0.0898242
0.133568
-0.0871498
0.124999
-0.0842314
0.116503
-0.0806551
0.107646
-0.0752505
0.0971195
-0.0656313
0.08226
-0.0482626
0.0590864
-0.0255923
0.030701
-0.00896983
0.00892723
-0.00243657
-0.000580497
-0.000302809
-0.00389262
0.000257193
-0.00447009
0.000203007
-0.0034271
-0.00136392
0.00154776
1.01102
-0.00250509
1.04492
-0.00710798
0.994866
-0.0121342
0.948859
-0.017217
0.90267
-0.0227476
0.861575
-0.0285653
0.821417
-0.0350105
0.783794
-0.0416756
0.747573
-0.0481569
0.712536
-0.0544219
0.678834
-0.0610248
0.646715
-0.0678749
0.615536
-0.0746619
0.585168
-0.0812505
0.555543
-0.0875452
0.526584
-0.0934984
0.498417
-0.0991205
0.47098
-0.104159
0.444157
-0.108578
0.418135
-0.112337
0.392917
-0.115491
0.368586
-0.118285
0.345286
-0.12092
0.323053
-0.122573
0.301473
-0.122543
0.28058
-0.121291
0.261011
-0.119718
0.243066
-0.11796
0.226408
-0.115697
0.210719
-0.112789
0.196031
-0.109688
0.182709
-0.106655
0.170636
-0.103521
0.159454
-0.100446
0.14919
-0.0974809
0.13965
-0.0945968
0.130684
-0.0915228
0.121925
-0.0878775
0.112858
-0.0825267
0.102295
-0.073095
0.0876878
-0.0554296
0.0645946
-0.0315188
0.0351757
-0.012997
0.0121792
-0.00499762
0.000927805
-0.00219007
-0.00338805
-0.00116887
-0.00491382
-0.000593395
-0.00504556
-0.000147446
-0.00387305
-0.00151136
0.00493872
1.00608
0.00274699
1.04711
-0.00026925
0.997882
-0.00452713
0.953117
-0.00962739
0.90777
-0.0155404
0.867488
-0.0215933
0.82747
-0.0280112
0.790212
-0.0348558
0.754418
-0.042373
0.720053
-0.0505446
0.687005
-0.0587018
0.654872
-0.0667105
0.623545
-0.0747039
0.593161
-0.0825772
0.563417
-0.0902334
0.534241
-0.0975277
0.505712
-0.104308
0.47776
-0.110549
0.450398
-0.116071
0.423656
-0.12078
0.397626
-0.12455
0.372356
-0.127076
0.347811
-0.127948
0.323925
-0.127899
0.301423
-0.128112
0.280793
-0.128143
0.261042
-0.127233
0.242156
-0.12515
0.224325
-0.12238
0.20795
-0.119532
0.193183
-0.116452
0.17963
-0.112912
0.167096
-0.109278
0.155819
-0.105912
0.145825
-0.102473
0.136211
-0.0989527
0.127163
-0.0950053
0.117977
-0.0894569
0.10731
-0.0798984
0.0927366
-0.0619615
0.0697509
-0.0368129
0.039446
-0.0166873
0.0150501
-0.00718874
0.00268064
-0.00374654
-0.0025144
-0.00239948
-0.0047351
-0.00166445
-0.00564885
-0.00106559
-0.00564443
-0.000443867
-0.00449477
-0.00195523
0.00568551
1.0004
0.00496755
1.04783
0.00277208
1.00008
-0.000187228
0.956076
-0.00418951
0.911772
-0.00867796
0.871976
-0.0140538
0.832846
-0.0203721
0.79653
-0.0271232
0.761169
-0.0340862
0.727016
-0.0411386
0.694057
-0.0488173
0.662551
-0.0570239
0.631751
-0.0654215
0.601559
-0.0738737
0.571869
-0.0822508
0.542618
-0.0903948
0.513856
-0.0981384
0.485504
-0.105434
0.457694
-0.112072
0.430294
-0.117921
0.403475
-0.122921
0.377356
-0.127243
0.352134
-0.131277
0.327959
-0.134749
0.304896
-0.13627
0.282314
-0.135784
0.260556
-0.134269
0.240641
-0.132422
0.222478
-0.130216
0.205744
-0.127119
0.190086
-0.123249
0.175759
-0.119375
0.163221
-0.115406
0.151851
-0.111152
0.141571
-0.106928
0.131986
-0.1023
0.122535
-0.0961162
0.111793
-0.0861999
0.0973933
-0.0679844
0.0745211
-0.0415297
0.0432962
-0.0190864
0.0170027
-0.00774394
0.00370761
-0.00306479
-0.00199851
-0.00121642
-0.00436278
-0.000567649
-0.00538387
-0.000489116
-0.00572738
-0.000509105
-0.00562444
-0.000352901
-0.00465098
-0.00230813
0.0106891
0.989709
0.0110688
1.04745
0.0103304
1.00082
0.00743473
0.958972
0.00396767
0.915239
-0.000539583
0.876483
-0.00599833
0.838305
-0.0119498
0.802482
-0.0185283
0.767748
-0.0261407
0.734629
-0.0348017
0.702718
-0.0437504
0.671499
-0.0529062
0.640907
-0.0623874
0.61104
-0.0720594
0.581541
-0.0817532
0.552311
-0.0913065
0.523409
-0.10057
0.494768
-0.109337
0.46646
-0.117465
0.438422
-0.124787
0.410797
-0.13106
0.383629
-0.136031
0.357104
-0.13918
0.331108
-0.140501
0.306216
-0.141299
0.283113
-0.142051
0.261308
-0.142166
0.240755
-0.140817
0.221129
-0.1379
0.202826
-0.13436
0.186546
-0.13074
0.172139
-0.126495
0.158977
-0.121597
0.146953
-0.116251
0.136224
-0.110491
0.126226
-0.103174
0.115219
-0.0922468
0.100866
-0.073321
0.0784675
-0.0456001
0.0468002
-0.019921
0.0176171
-0.00534429
0.00242598
0.00162409
-0.00326076
0.00463389
-0.00500831
0.0054488
-0.00517769
0.00491454
-0.00484961
0.00352465
-0.00433749
0.00183036
-0.00393014
0.000504095
-0.00332471
-0.00180404
0.00946478
0.980244
0.0112049
1.04571
0.0119064
1.00011
0.0110724
0.959806
0.00901529
0.917296
0.00583465
0.879664
0.00168043
0.842459
-0.00361085
0.807773
-0.00991384
0.774051
-0.0167077
0.741422
-0.0239016
0.709912
-0.0320455
0.679643
-0.0411284
0.64999
-0.0507911
0.620702
-0.0608979
0.591648
-0.0712875
0.562701
-0.0817446
0.533866
-0.0920314
0.505054
-0.1019
0.476329
-0.111195
0.447717
-0.119806
0.419408
-0.127535
0.391358
-0.134147
0.363716
-0.140165
0.337126
-0.145844
0.311895
-0.149685
0.286953
-0.151147
0.26277
-0.150469
0.240078
-0.148611
0.219271
-0.146443
0.200658
-0.143548
0.183651
-0.139267
0.167858
-0.133878
0.153588
-0.12808
0.141155
-0.121253
0.129396
-0.112435
0.117409
-0.0995139
0.102297
-0.0783724
0.0797243
-0.0479066
0.0480017
-0.0187199
0.0176134
7.23648e-05
-0.00117515
0.00914108
-0.00664273
0.0130042
-0.00712385
0.0137826
-0.00578675
0.0128722
-0.00426732
0.0108509
-0.00282826
0.00804856
-0.00153516
0.00480361
-0.000685197
0.00174552
-0.000266623
-5.85137e-05
0.015117
0.965127
0.0174905
1.04334
0.0188914
0.998714
0.0176885
0.961009
0.0161782
0.918807
0.0131688
0.882673
0.00941812
0.84621
0.00472808
0.812463
-0.000905364
0.779684
-0.00792159
0.748439
-0.0162639
0.718255
-0.0252101
0.688589
-0.0347758
0.659556
-0.0451374
0.631064
-0.0561542
0.602665
-0.0676282
0.574175
-0.0793587
0.545596
-0.0911302
0.516826
-0.102716
0.487914
-0.113886
0.458887
-0.124301
0.429823
-0.133745
0.400803
-0.141987
0.371959
-0.148491
0.34363
-0.152423
0.315827
-0.154609
0.289139
-0.15635
0.264511
-0.157514
0.241242
-0.157778
0.219536
-0.155909
0.198789
-0.151775
0.179517
-0.14703
0.163112
-0.141458
0.148016
-0.133967
0.133664
-0.123771
0.1192
-0.108442
0.10208
-0.0838057
0.0776612
-0.0492075
0.045126
-0.0170298
0.015824
0.00426864
-0.00368503
0.0140128
-0.0109194
0.0175041
-0.010134
0.0181311
-0.00775087
0.0173227
-0.00497831
0.0154268
-0.00237143
0.0127208
-0.000122295
0.00930513
0.00188056
0.00561613
0.0030038
0.00211744
0.00323207
0.00205892
0.0116631
0.953464
0.0155335
1.03947
0.0183855
0.995862
0.0196225
0.959772
0.0194603
0.918969
0.0183125
0.883821
0.0159666
0.848556
0.0122307
0.816199
0.0074155
0.784499
0.00182872
0.754025
-0.00457531
0.724659
-0.0123786
0.696393
-0.0214385
0.668615
-0.0314601
0.641086
-0.0424536
0.613658
-0.0542704
0.585992
-0.0666636
0.55799
-0.0793378
0.5295
-0.0919786
0.500555
-0.104308
0.471217
-0.116039
0.441554
-0.126953
0.411717
-0.136927
0.381933
-0.145699
0.352402
-0.153721
0.323849
-0.160832
0.296249
-0.165355
0.269034
-0.167125
0.243012
-0.166204
0.218614
-0.163821
0.196406
-0.161256
0.176952
-0.156778
0.158635
-0.148907
0.140145
-0.136726
0.121483
-0.118603
0.101078
-0.0893816
0.0728588
-0.0518787
0.0401583
-0.0183243
0.0115716
0.00162437
-0.00412462
0.0114362
-0.0134968
0.0142474
-0.0137306
0.0153955
-0.0112821
0.0150097
-0.00736506
0.014004
-0.00397261
0.0124087
-0.000776103
0.0100643
0.00222207
0.00733379
0.00461105
0.00431207
0.00602553
0.00151904
0.0060251
0.00357796
0.0168735
0.936591
0.0209481
1.03539
0.0233645
0.993445
0.0241006
0.959036
0.0245721
0.918498
0.023543
0.88485
0.0217008
0.850398
0.0190133
0.818886
0.0151376
0.788375
0.0097075
0.759456
0.00278747
0.731579
-0.00508007
0.70426
-0.0141132
0.677649
-0.0242665
0.651239
-0.0355873
0.624979
-0.0479562
0.598361
-0.0612058
0.571239
-0.0751184
0.543413
-0.089338
0.514774
-0.103524
0.485403
-0.117329
0.455358
-0.130433
0.424821
-0.14245
0.39395
-0.153016
0.362968
-0.161123
0.331957
-0.166508
0.301634
-0.1702
0.272727
-0.172237
0.245049
-0.173709
0.220086
-0.174571
0.197268
-0.171396
0.173777
-0.162842
0.150081
-0.149756
0.127059
-0.128209
0.0999362
-0.094163
0.0670314
-0.056842
0.0355378
-0.0283879
0.0117042
-0.0140416
-0.00277476
-0.00866605
-0.00950016
-0.0076074
-0.0145555
-0.00584821
-0.0154898
-0.00332149
-0.0138088
-0.00116985
-0.0095167
0.000348068
-0.00549053
0.00107027
-0.00149831
0.00125339
0.00203895
0.000856094
0.00500835
0.000208259
0.00667337
-0.000236623
0.00646998
0.00334134
0.0105841
0.926007
0.0171382
1.02884
0.0205357
0.990048
0.0235743
0.955997
0.0252342
0.916838
0.0260435
0.884041
0.0257932
0.850648
0.0242101
0.820469
0.0215629
0.791022
0.0181412
0.762877
0.0135744
0.736146
0.0072387
0.710596
-0.000635042
0.685522
-0.00994848
0.660552
-0.0206037
0.635634
-0.0327226
0.61048
-0.0461402
0.584657
-0.0605833
0.557856
-0.0756015
0.529793
-0.0907115
0.500513
-0.105704
0.470351
-0.120318
0.439434
-0.133984
0.407616
-0.146559
0.375544
-0.158014
0.343411
-0.168462
0.312082
-0.17655
0.280815
-0.18235
0.250849
-0.185111
0.222847
-0.183293
0.195451
-0.175525
0.166009
-0.162114
0.136671
-0.137044
0.101988
-0.103755
0.0666472
-0.0753957
0.0386722
-0.0569438
0.0170858
-0.0485363
0.00329675
-0.0437139
-0.00759714
-0.0377698
-0.0154443
-0.0316717
-0.0206536
-0.0252656
-0.0218959
-0.0188493
-0.0202251
-0.013424
-0.0149419
-0.00945006
-0.00946451
-0.00680701
-0.00414136
-0.00516554
0.000397483
-0.00392789
0.00377071
-0.0026217
0.00536717
-0.00119655
0.00504483
0.00214479
0.0148013
0.911205
0.0225729
1.02107
0.0237295
0.988891
0.0259491
0.953777
0.0280628
0.914724
0.0287879
0.883316
0.0288957
0.85054
0.0285331
0.820832
0.0268835
0.792672
0.023633
0.766128
0.0189918
0.740787
0.0132848
0.716303
0.00612184
0.692685
-0.00263112
0.669305
-0.0129816
0.645984
-0.0250149
0.622513
-0.0387622
0.598404
-0.0539792
0.573073
-0.0702071
0.546021
-0.0868868
0.517193
-0.103915
0.487379
-0.120893
0.456412
-0.137001
0.423724
-0.152008
0.390551
-0.165349
0.356752
-0.175095
0.321828
-0.182656
0.288376
-0.187874
0.256067
-0.188194
0.223167
-0.183912
0.191168
-0.170933
0.153029
-0.146487
0.112225
-0.119662
0.0751634
-0.0985554
0.0455403
-0.0867116
0.0268283
-0.0800488
0.0104231
-0.0732565
-0.00349558
-0.0666305
-0.0142232
-0.0597592
-0.0223155
-0.0523961
-0.0280167
-0.0442346
-0.0300574
-0.035005