/*--------------------------------*- C++ -*----------------------------------*\
| =========                 |                                                 |
| \\      /  F ield         | OpenFOAM: The Open Source CFD Toolbox           |
|  \\    /   O peration     | Version:  v1912                                 |
|   \\  /    A nd           | Website:  www.openfoam.com                      |
|    \\/     M anipulation  |                                                 |
\*---------------------------------------------------------------------------*/
FoamFile
{
    version     2.0;
    format      ascii;
    class       volVectorField;
    location    "0.24";
    object      U;
}
// * * * * * * * * * * * * * * * * * * * * * * * * * * * * * * * * * * * * * //

dimensions      [0 1 -1 0 0 0 0];


internalField   nonuniform List<vector> 
6600
(
(39.8479 -0.0391074 0)
(40.1045 -0.046181 1.12043e-20)
(40.1753 0.0572442 7.88823e-19)
(40.2347 0.162191 0)
(40.2917 0.293463 9.63328e-19)
(40.3413 0.458597 3.25085e-20)
(40.4121 0.644794 -3.60683e-20)
(40.4648 0.850328 -4.09718e-20)
(40.4929 1.08502 8.55927e-19)
(40.5305 1.30949 -1.24464e-19)
(40.5406 1.55086 0)
(40.5261 1.81994 -1.16189e-18)
(40.5148 2.08716 0)
(40.4938 2.36588 -1.3463e-18)
(40.4535 2.65845 -1.96745e-18)
(40.3918 2.96074 -1.09577e-18)
(40.3117 3.27831 0)
(40.2079 3.60729 0)
(40.0898 3.95257 2.04132e-18)
(39.9545 4.31285 -1.95363e-18)
(39.8088 4.6923 -2.95612e-19)
(39.6542 5.08683 -1.14231e-18)
(39.4761 5.49463 -2.21226e-18)
(39.244 5.85342 5.26577e-19)
(39.0632 6.28703 1.94287e-18)
(38.8381 6.76945 0)
(38.5263 7.25215 5.09743e-18)
(38.2234 7.75368 0)
(37.9447 8.3223 -2.76346e-18)
(37.6242 8.91243 -1.87978e-18)
(37.2828 9.52071 -3.03838e-19)
(36.9637 10.1682 -2.46482e-18)
(36.6384 10.8561 -1.00028e-18)
(36.2725 11.5859 2.18611e-18)
(35.9159 12.3491 3.10148e-19)
(35.5779 13.1712 2.74913e-18)
(35.2405 14.0531 5.10215e-18)
(34.9233 14.9927 5.35803e-18)
(34.623 15.9932 -4.00336e-18)
(34.3412 17.0659 4.36749e-18)
(34.0894 18.2105 2.38985e-18)
(33.8617 19.4178 0)
(33.681 20.7051 -1.00102e-18)
(33.5722 22.1025 2.3064e-18)
(33.5068 23.5589 0)
(33.5092 25.152 3.48042e-19)
(33.5481 26.695 4.58961e-19)
(33.8145 28.6827 0)
(32.2068 29.1923 0)
(22.6352 21.8069 -7.52567e-19)
(39.7375 -0.0495005 6.5666e-19)
(40.1925 -0.0484406 -6.62484e-19)
(40.2523 0.10834 0)
(40.3054 0.271096 -1.24225e-20)
(40.3619 0.439217 8.49593e-19)
(40.4165 0.628727 3.01563e-20)
(40.4674 0.813134 1.40599e-22)
(40.5198 1.01168 -3.73782e-20)
(40.5685 1.21342 0)
(40.6079 1.44811 -1.49448e-18)
(40.6356 1.6928 -5.46597e-20)
(40.6734 1.94038 9.76124e-19)
(40.6868 2.21277 1.06136e-18)
(40.6898 2.50096 7.99047e-19)
(40.6722 2.80525 -6.03797e-21)
(40.6318 3.12102 1.18453e-19)
(40.577 3.45266 -1.10265e-18)
(40.4976 3.79736 0)
(40.4012 4.15868 0)
(40.2827 4.53389 2.02239e-18)
(40.1388 4.92589 2.97788e-19)
(39.9656 5.33304 -1.64129e-18)
(39.7642 5.76154 -1.55406e-18)
(39.6008 6.30554 -1.83802e-18)
(39.3418 6.78667 -1.58495e-18)
(39.0479 7.24818 -6.48631e-19)
(38.8103 7.7807 -8.34398e-19)
(38.5628 8.34165 -8.92776e-19)
(38.2622 8.87806 2.77791e-18)
(37.9855 9.46167 2.7173e-19)
(37.72 10.0976 -3.69493e-18)
(37.4144 10.7515 3.44385e-18)
(37.0909 11.4391 2.68943e-18)
(36.7837 12.1645 -3.27667e-18)
(36.4796 12.9392 3.17032e-19)
(36.1782 13.7589 -2.81161e-18)
(35.9188 14.6288 2.64884e-18)
(35.6743 15.5542 -1.86433e-18)
(35.4485 16.5339 -1.57846e-18)
(35.2622 17.5737 -1.78955e-18)
(35.1052 18.6629 0)
(34.9857 19.8272 0)
(34.9223 21.046 -6.88401e-19)
(34.9264 22.3484 7.00456e-19)
(35.0399 23.7217 7.70297e-19)
(35.2185 25.2084 -3.59355e-19)
(35.4405 26.6624 7.9019e-19)
(35.7666 28.3687 0)
(34.0058 28.4342 -2.37417e-18)
(23.2058 20.5263 9.02723e-19)
(39.6814 -0.00683191 -5.81683e-20)
(40.3225 -0.0572926 6.76083e-19)
(40.3813 0.12055 6.51451e-19)
(40.4561 0.265783 -3.57777e-22)
(40.5241 0.452872 -1.28849e-19)
(40.6028 0.668605 2.75386e-20)
(40.6805 0.89628 0)
(40.7448 1.14417 0)
(40.7802 1.407 0)
(40.8224 1.66384 7.81861e-19)
(40.8417 1.94591 -4.93114e-20)
(40.8376 2.24647 -9.82635e-19)
(40.8343 2.54687 -5.66202e-19)
(40.8231 2.85901 1.19575e-18)
(40.792 3.18594 7.11012e-19)
(40.74 3.52338 -1.15463e-19)
(40.6705 3.87667 2.24577e-18)
(40.578 4.243 -1.19817e-18)
(40.4724 4.6264 -1.42932e-18)
(40.3521 5.02551 0)
(40.2232 5.44424 -1.01555e-18)
(40.087 5.87762 1.32495e-18)
(39.9289 6.32111 1.57266e-18)
(39.7208 6.71278 1.86118e-18)
(39.5764 7.1921 1.65635e-18)
(39.3886 7.71424 -2.56535e-19)
(39.111 8.22419 -3.52969e-19)
(38.8514 8.75504 -1.16901e-18)
(38.6226 9.35688 -4.79923e-19)
(38.3531 9.97205 1.81048e-18)
(38.0698 10.6017 6.39349e-19)
(37.8213 11.2701 0)
(37.5774 11.972 -3.34451e-18)
(37.2999 12.7081 9.38693e-19)
(37.0448 13.4678 2.08481e-18)
(36.8224 14.2782 3.23431e-18)
(36.6109 15.1349 -1.50045e-18)
(36.4358 16.0338 -1.34181e-18)
(36.2945 16.9817 3.47389e-19)
(36.1893 17.9821 0)
(36.1397 19.0359 -1.07014e-18)
(36.1362 20.1282 0)
(36.2053 21.2765 0)
(36.3769 22.5039 -5.36311e-19)
(36.6155 23.7595 -2.04293e-19)
(36.9378 25.1113 -7.27036e-19)
(37.3507 26.5186 -7.28095e-19)
(37.6865 27.8353 0)
(35.5785 27.4398 -1.5862e-18)
(23.332 18.8887 1.74639e-18)
(39.6375 -0.000514251 -6.02878e-19)
(40.4776 -0.00503683 4.35833e-21)
(40.509 0.23487 -6.68444e-19)
(40.5791 0.414151 -5.85471e-19)
(40.6546 0.62839 -7.41179e-19)
(40.7012 0.850194 -3.37603e-19)
(40.77 1.06646 -2.64667e-20)
(40.8364 1.30014 0)
(40.89 1.53311 4.84967e-19)
(40.9279 1.8062 5.94333e-19)
(40.971 2.07094 -4.31333e-20)
(41.0091 2.35503 -5.26179e-20)
(41.029 2.65809 -4.54774e-19)
(41.0386 2.97618 -1.53653e-19)
(41.027 3.31109 -9.62202e-21)
(40.9946 3.658 -1.03967e-19)
(40.9477 4.02165 -3.41966e-21)
(40.8783 4.39935 1.35548e-18)
(40.7934 4.79438 1.9162e-18)
(40.6885 5.2041 0)
(40.5615 5.63096 1.08469e-19)
(40.4074 6.07181 0)
(40.2265 6.52605 0)
(40.0874 7.10207 -4.2095e-19)
(39.8537 7.61609 1.37509e-18)
(39.5914 8.10974 1.48113e-18)
(39.3932 8.67631 -3.22913e-19)
(39.1876 9.26978 1.62414e-18)
(38.9372 9.82948 0)
(38.7205 10.4342 0)
(38.5235 11.0878 1.07828e-18)
(38.2935 11.7549 0)
(38.0538 12.4504 8.53894e-19)
(37.8457 13.1732 1.62733e-18)
(37.6508 13.9398 -2.85603e-18)
(37.4712 14.7397 -3.0649e-18)
(37.3483 15.5768 2.9016e-18)
(37.2528 16.4539 -1.08383e-18)
(37.1922 17.3694 2.60647e-19)
(37.1922 18.3243 3.0069e-19)
(37.2365 19.3035 1.68664e-18)
(37.3371 20.3349 0)
(37.5154 21.3933 0)
(37.7704 22.4942 6.79994e-20)
(38.1523 23.6316 -7.29798e-19)
(38.6102 24.8451 -5.14453e-19)
(39.1123 26.0938 -1.99154e-18)
(39.2981 27.0869 2.19894e-18)
(36.632 26.1214 3.59634e-18)
(22.9225 16.9343 0)
(39.625 0.0499353 -1.78569e-21)
(40.6657 0.00367471 4.28886e-19)
(40.712 0.276531 4.61572e-19)
(40.7991 0.416744 6.07271e-19)
(40.87 0.657717 0)
(40.9673 0.898961 7.26184e-20)
(41.0434 1.16765 0)
(41.1115 1.44452 -2.4519e-20)
(41.1431 1.74815 -8.45238e-19)
(41.1988 2.02332 -5.90793e-19)
(41.2193 2.3435 3.5931e-20)
(41.22 2.67408 4.44378e-20)
(41.221 3.00531 -4.94494e-20)
(41.2145 3.34827 -5.27859e-19)
(41.189 3.70626 -1.22564e-18)
(41.1421 4.07543 8.39306e-20)
(41.0791 4.46049 -1.65919e-18)
(40.9952 4.8592 1.30763e-19)
(40.8997 5.27469 -6.35168e-19)
(40.7922 5.70561 -3.62896e-19)
(40.6787 6.15542 1.1346e-18)
(40.5601 6.61931 0)
(40.422 7.08609 0)
(40.2378 7.49884 -6.73454e-19)
(40.1246 8.00142 -9.17318e-19)
(39.9759 8.55268 1.188e-18)
(39.738 9.0832 -2.8761e-19)
(39.5252 9.63054 0)
(39.353 10.2555 3.96464e-19)
(39.1461 10.8855 -4.41605e-19)
(38.9289 11.5226 -1.09591e-18)
(38.7576 12.194 -1.5805e-18)
(38.6056 12.8925 6.26826e-19)
(38.4272 13.6194 -6.66886e-19)
(38.2842 14.3573 7.42068e-19)
(38.1893 15.136 0)
(38.1144 15.9458 -9.0442e-19)
(38.089 16.7806 -1.27594e-18)
(38.1127 17.6452 7.58599e-19)
(38.184 18.5395 7.77494e-19)
(38.3219 19.4654 -6.03395e-19)
(38.5183 20.3999 0)
(38.7965 21.3589 0)
(39.1919 22.3625 -7.17598e-19)
(39.6533 23.3591 1.54631e-18)
(40.1839 24.4092 4.1628e-19)
(40.741 25.5679 1.32925e-18)
(40.7375 26.1186 -2.84294e-18)
(37.2754 24.5987 3.40484e-19)
(21.8799 14.688 -5.06383e-18)
(39.6494 0.0716841 3.62599e-19)
(40.8626 0.0591934 -1.06515e-19)
(40.8957 0.42486 -4.71012e-19)
(40.9881 0.578068 1.74138e-19)
(41.0462 0.848099 0)
(41.1017 1.0938 2.86833e-19)
(41.1751 1.3324 -8.27481e-21)
(41.2456 1.60123 -2.3641e-19)
(41.314 1.86716 3.86914e-19)
(41.3465 2.17989 0)
(41.3973 2.46414 2.90431e-20)
(41.4418 2.77353 1.87951e-19)
(41.4654 3.10555 -3.08096e-19)
(41.4822 3.45192 4.63456e-20)
(41.4784 3.8157 5.85759e-19)
(41.4551 4.19134 -6.79292e-20)
(41.4198 4.5836 5.56623e-19)
(41.3629 4.99051 -1.0016e-19)
(41.2919 5.41435 1.3183e-19)
(41.2035 5.85325 3.9224e-19)
(41.0965 6.31035 5.56323e-19)
(40.9648 6.7825 -7.71151e-21)
(40.8109 7.27179 2.63259e-19)
(40.7009 7.87737 1.08717e-18)
(40.4953 8.41696 0)
(40.2633 8.92946 -9.41017e-19)
(40.1068 9.51678 2.54971e-19)
(39.9482 10.1286 8.34412e-21)
(39.7505 10.6957 -7.31649e-20)
(39.5956 11.3057 3.70741e-19)
(39.4728 11.9571 -7.3031e-19)
(39.3234 12.6154 1.03395e-18)
(39.1673 13.2942 0)
(39.058 13.9873 0)
(38.9754 14.7184 0)
(38.9159 15.4685 0)
(38.9252 16.2402 -6.03189e-19)
(38.9719 17.0338 1.14222e-18)
(39.0613 17.8455 0)
(39.2212 18.6754 3.59531e-20)
(39.4281 19.501 -1.92511e-19)
(39.6969 20.3536 -8.14028e-19)
(40.0517 21.207 4.40836e-19)
(40.4698 22.0603 0)
(41.0055 22.9196 8.42099e-19)
(41.6127 23.867 -3.14425e-18)
(42.0771 24.7094 2.29672e-18)
(41.6886 24.9749 1.99263e-18)
(37.131 22.7402 7.52049e-18)
(20.0771 12.1703 -5.6449e-18)
(39.7145 0.098739 -3.62076e-19)
(41.1047 0.0511043 -5.28509e-19)
(41.1591 0.460251 4.20059e-21)
(41.2598 0.590553 -1.75175e-19)
(41.3391 0.880613 9.3096e-20)
(41.4367 1.15568 -4.649e-21)
(41.5204 1.45644 1.1024e-19)
(41.5868 1.75806 2.37356e-19)
(41.6227 2.08927 1.3974e-19)
(41.6844 2.39943 -7.36119e-21)
(41.7202 2.75841 -9.6914e-20)
(41.7324 3.12145 -1.00238e-19)
(41.7437 3.48474 2.67898e-19)
(41.7474 3.86082 0)
(41.7323 4.25188 0)
(41.6981 4.65432 2.70784e-20)
(41.6474 5.07319 4.69259e-19)
(41.5779 5.5051 0)
(41.4984 5.95202 5.06432e-20)
(41.4084 6.41256 -5.9992e-19)
(41.313 6.88917 -5.82354e-19)
(41.2139 7.37683 2.07264e-19)
(41.0949 7.85604 0)
(40.938 8.28748 -5.63524e-19)
(40.854 8.8006 -1.50615e-19)
(40.7463 9.36891 1.68015e-19)
(40.5528 9.9095 0)
(40.3872 10.4582 0)
(40.2722 11.0857 -4.17042e-19)
(40.1314 11.7111 -1.92699e-19)
(39.9786 12.3362 1.0529e-18)
(39.8779 12.9842 -3.48027e-19)
(39.8125 13.6494 -3.42114e-19)
(39.728 14.3369 7.20033e-19)
(39.6866 15.0203 -7.81955e-19)
(39.7071 15.7309 -1.77139e-20)
(39.7506 16.4553 3.82985e-19)
(39.8465 17.1875 -2.88952e-19)
(39.9996 17.9287 -1.97553e-19)
(40.1973 18.6735 4.81311e-20)
(40.4601 19.4317 -2.32799e-19)
(40.7835 20.171 4.26796e-19)
(41.1785 20.9036 1.01947e-18)
(41.6924 21.6518 -1.13247e-18)
(42.258 22.3791 8.12547e-19)
(42.8859 23.2268 0)
(43.1472 23.7245 1.50198e-18)
(42.2922 23.6562 2.53094e-18)
(36.3801 20.6923 -5.07527e-18)
(17.4052 9.44314 -1.57397e-18)
(39.8064 0.126327 1.33851e-19)
(41.3585 0.101626 2.03748e-19)
(41.4136 0.597773 1.1749e-21)
(41.5074 0.74203 -1.03089e-20)
(41.5701 1.08211 -9.90308e-20)
(41.622 1.34595 -8.12031e-21)
(41.702 1.61176 -8.9529e-20)
(41.7869 1.90595 -1.11837e-20)
(41.8586 2.20976 -1.33635e-19)
(41.8982 2.54475 6.83425e-21)
(41.954 2.85637 9.9835e-20)
(42.0098 3.19324 -1.3029e-19)
(42.0467 3.55496 -2.2375e-20)
(42.078 3.93063 -1.51079e-21)
(42.0899 4.32372 -2.74588e-20)
(42.0827 4.72958 5.75699e-20)
(42.0651 5.15103 -2.00875e-19)
(42.0272 5.5872 0)
(41.9763 6.03912 0)
(41.9095 6.5053 0)
(41.8263 6.98844 -5.05829e-20)
(41.7182 7.48538 -2.36774e-19)
(41.599 8.01217 -1.39605e-19)
(41.5221 8.6392 -8.40817e-20)
(41.3489 9.20117 0)
(41.1449 9.72168 0)
(41.0288 10.3109 2.14639e-19)
(40.9193 10.9249 -1.60024e-19)
(40.7724 11.4844 -8.52848e-20)
(40.6717 12.0774 1.00265e-19)
(40.6172 12.7018 1.36497e-20)
(40.5437 13.3279 -6.51219e-20)
(40.4583 13.9626 9.34792e-20)
(40.4305 14.5935 -1.99653e-19)
(40.4427 15.2554 2.50835e-19)
(40.4761 15.9215 1.86581e-19)
(40.5813 16.5911 1.26655e-19)
(40.7269 17.2636 8.77294e-20)
(40.9109 17.9355 9.25915e-21)
(41.1648 18.6092 2.97038e-19)
(41.4597 19.2508 -2.10595e-19)
(41.8095 19.8983 9.36393e-19)
(42.2478 20.5315 -1.04152e-18)
(42.7225 21.1319 0)
(43.2945 21.7347 0)
(43.8602 22.3989 0)
(43.894 22.6041 0)
(42.1985 22.1095 0)
(34.4706 18.2508 -2.91997e-18)
(13.7705 6.53839 4.80377e-18)
(39.9271 0.167532 -1.35341e-19)
(41.6608 0.0885692 0)
(41.7331 0.619076 0)
(41.8522 0.748337 9.69805e-21)
(41.9228 1.09967 1.70971e-21)
(42.0333 1.4008 1.1785e-20)
(42.1175 1.72632 -2.00337e-20)
(42.1917 2.06575 1.12193e-20)
(42.2416 2.40813 -1.00374e-19)
(42.3128 2.75326 -1.2868e-20)
(42.373 3.15043 4.28017e-21)
(42.4037 3.54653 -1.22569e-19)
(42.4328 3.9449 -4.39532e-20)
(42.4554 4.35575 0)
(42.4588 4.78156 3.72786e-20)
(42.4442 5.21836 -5.93561e-20)
(42.4136 5.67143 -2.345e-21)
(42.365 6.13646 3.27626e-20)
(42.3066 6.61407 -8.80403e-21)
(42.2381 7.10304 0)
(42.1633 7.60481 0)
(42.0845 8.11166 3.79031e-20)
(41.9824 8.59899 1.56839e-19)
(41.8497 9.04083 -8.38433e-20)
(41.7897 9.55 -5.63681e-20)
(41.7245 10.127 1.29927e-19)
(41.5768 10.6708 -2.94461e-19)
(41.4531 11.2026 1.67154e-19)
(41.3875 11.8097 -1.35109e-19)
(41.3075 12.4119 9.12364e-20)
(41.2082 13.0045 -4.7933e-20)
(41.1578 13.6031 2.61068e-19)
(41.1596 14.2075 6.44471e-20)
(41.1481 14.8288 9.66801e-20)
(41.1762 15.4295 0)
(41.274 16.041 -1.11187e-19)
(41.3905 16.6505 -4.71863e-20)
(41.5509 17.2537 1.22871e-19)
(41.7708 17.8483 5.6213e-19)
(42.0227 18.4209 -4.88919e-19)
(42.3289 18.9969 -1.8324e-19)
(42.6958 19.5373 -1.15895e-18)
(43.1095 20.0438 2.82426e-18)
(43.6376 20.5515 2.9392e-19)
(44.2582 21.1242 3.40677e-19)
(44.5477 21.429 -1.25463e-18)
(44.2391 21.3891 0)
(41.4747 20.3007 2.55343e-18)
(31.6967 15.5169 -1.36938e-18)
(9.00095 3.40618 0)
(40.082 0.190816 -4.81456e-22)
(41.9901 0.149808 -1.60872e-22)
(42.0528 0.741171 1.54219e-19)
(42.1506 0.882882 0)
(42.2054 1.27564 2.66911e-21)
(42.2734 1.55787 1.30292e-19)
(42.3618 1.8569 0)
(42.4636 2.17023 -1.76265e-19)
(42.5467 2.51251 1.09905e-19)
(42.6057 2.87245 -1.02866e-20)
(42.6636 3.20562 -2.49631e-19)
(42.7398 3.5661 -2.32843e-20)
(42.7948 3.95933 7.89917e-20)
(42.8478 4.36425 0)
(42.8815 4.78749 0)
(42.8971 5.22403 0)
(42.9019 5.67529 1.85781e-19)
(42.8873 6.14061 -3.35866e-20)
(42.8604 6.62032 1.40248e-19)
(42.8176 7.11308 -1.10953e-20)
(42.7591 7.62009 2.14752e-20)
(42.6756 8.13794 -4.83107e-20)
(42.5934 8.69326 -5.25897e-20)
(42.5502 9.33563 2.76876e-20)
(42.407 9.91545 0)
(42.2231 10.4287 -6.87838e-20)
(42.1384 11 1.01028e-20)
(42.0718 11.6041 -8.49718e-20)
(41.9665 12.1443 -5.46077e-21)
(41.9003 12.6989 5.24751e-21)
(41.8924 13.2725 -2.39261e-20)
(41.8766 13.8456 1.6341e-19)
(41.8352 14.4161 -1.00677e-19)
(41.8541 14.9628 3.43846e-19)
(41.9261 15.5337 1.58023e-19)
(42.0071 16.0972 -4.04084e-19)
(42.1525 16.6469 5.95396e-19)
(42.3397 17.1827 -4.39641e-19)
(42.5511 17.7022 2.88183e-20)
(42.8248 18.2162 0)
(43.1336 18.6769 8.6728e-19)
(43.4807 19.1251 6.71163e-19)
(43.9226 19.5594 1.12365e-19)
(44.3908 19.9734 -1.99287e-18)
(44.8602 20.3334 -8.48075e-20)
(44.9295 20.3984 -1.51404e-18)
(44.0287 20.0204 0)
(39.7066 18.1156 2.57361e-18)
(27.4528 12.1661 -4.34814e-18)
(5.17401 1.02494 0)
(40.2983 0.252904 0)
(42.3558 0.147129 0)
(42.4392 0.745987 -2.70503e-20)
(42.5445 0.859202 7.75333e-21)
(42.6232 1.27917 -1.83944e-19)
(42.7353 1.57835 -1.3353e-19)
(42.8358 1.939 0)
(42.9188 2.29743 1.76669e-19)
(43.0021 2.66548 -3.09401e-19)
(43.0877 3.04008 0)
(43.1889 3.46915 4.47579e-19)
(43.2468 3.89899 -8.29573e-20)
(43.3018 4.32972 2.44866e-20)
(43.3499 4.77339 -2.72976e-20)
(43.3787 5.23354 0)
(43.3888 5.70517 0)
(43.3826 6.19174 -3.38153e-20)
(43.3586 6.68899 -1.81813e-19)
(43.3229 7.19732 1.10046e-19)
(43.2749 7.71376 -2.08533e-20)
(43.2196 8.23832 4.53809e-20)
(43.1574 8.76201 -2.46884e-20)
(43.0687 9.25782 1.13383e-19)
(42.9501 9.70068 3.03918e-20)
(42.9009 10.1923 -1.49651e-19)
(42.871 10.7712 -1.99391e-19)
(42.7623 11.3124 3.27898e-20)
(42.6628 11.8121 1.71407e-19)
(42.6247 12.3784 0)
(42.5889 12.9436 0)
(42.5218 13.49 0)
(42.4861 14.0221 -1.37935e-19)
(42.5198 14.5473 -1.48623e-19)
(42.5499 15.0894 -1.0363e-19)
(42.6034 15.5976 2.80195e-19)
(42.7284 16.0985 3.57146e-19)
(42.868 16.5866 -1.09218e-19)
(43.0329 17.0592 5.27761e-19)
(43.2567 17.5126 -3.16315e-19)
(43.4986 17.9198 -4.6109e-19)
(43.7768 18.3259 -5.8965e-19)
(44.1238 18.6973 6.57439e-19)
(44.4884 19.0236 0)
(45.0172 19.3994 1.08264e-18)
(45.2114 19.5128 -5.94475e-19)
(44.9642 19.3743 8.18056e-19)
(43.0363 18.4569 0)
(36.746 15.5193 -1.16542e-18)
(22.3295 8.48397 6.68036e-19)
(2.77967 -0.0198616 0)
(40.5068 0.25197 -1.36862e-19)
(42.7393 0.192136 0)
(42.7945 0.835865 -3.17475e-19)
(42.8933 0.95819 2.19219e-19)
(42.9438 1.40369 1.79756e-19)
(43.0341 1.69407 -7.82398e-21)
(43.141 2.00242 8.70747e-21)
(43.2697 2.35842 0)
(43.3695 2.71774 2.98413e-19)
(43.4519 3.0999 -2.31088e-19)
(43.5262 3.45195 -1.97764e-19)
(43.6272 3.83847 2.38478e-19)
(43.7125 4.25788 -1.76368e-19)
(43.7928 4.69181 -4.16698e-20)
(43.8541 5.14545 2.32544e-20)
(43.8966 5.61315 0)
(43.9281 6.09466 -2.13022e-19)
(43.9378 6.59088 2.33377e-19)
(43.9343 7.09968 8.58461e-20)
(43.9159 7.61911 7.40664e-22)
(43.8781 8.1499 4.19746e-20)
(43.8155 8.68747 0)
(43.7611 9.26225 4.93861e-20)
(43.7445 9.91762 2.21974e-19)
(43.6237 10.513 1.8039e-19)
(43.4438 11.0092 2.00459e-19)
(43.3668 11.5469 0)
(43.3255 12.1306 -1.30341e-19)
(43.244 12.6473 -3.56549e-19)
(43.1801 13.1511 1.78684e-19)
(43.1811 13.6593 -4.15397e-19)
(43.1951 14.1673 -2.06278e-19)
(43.1666 14.6684 3.608e-19)
(43.1888 15.1258 -1.25654e-19)
(43.2792 15.6004 -2.82603e-19)
(43.3631 16.0628 -1.25389e-19)
(43.4939 16.4985 -2.16724e-19)
(43.6717 16.9088 0)
(43.8552 17.2871 -4.20818e-19)
(44.0865 17.6633 9.29564e-19)
(44.3576 17.9776 5.96038e-19)
(44.6394 18.2617 -7.16217e-19)
(45.0978 18.605 9.1707e-19)
(45.3093 18.7413 -4.87469e-19)
(45.267 18.7072 1.35792e-18)
(44.3722 18.2419 -2.38252e-20)
(40.9883 16.7013 0)
(32.2039 12.7545 2.33415e-18)
(14.5587 4.63396 -1.95402e-18)
(0.629875 -0.234135 -6.81028e-19)
(40.793 0.299566 1.36975e-19)
(43.1385 0.167074 -2.19135e-19)
(43.2251 0.805285 1.85786e-19)
(43.3296 0.902161 -2.1546e-19)
(43.427 1.35194 -1.62502e-19)
(43.5466 1.65352 -1.02944e-20)
(43.6561 2.03811 5.81424e-21)
(43.7699 2.39829 0)
(43.8793 2.7871 -2.63245e-19)
(44.0023 3.18147 3.8615e-19)
(44.142 3.64301 0)
(44.2525 4.10517 -2.27307e-20)
(44.3439 4.5677 -5.92707e-21)
(44.424 5.0472 2.35862e-19)
(44.4848 5.54223 -3.30991e-19)
(44.5255 6.04932 -1.30969e-22)
(44.5458 6.57311 4.05964e-20)
(44.5459 7.10503 0)
(44.5319 7.64563 -1.05328e-19)
(44.4994 8.19314 2.89535e-19)
(44.4568 8.74187 -3.10907e-20)
(44.4021 9.28409 0)
(44.3206 9.79243 0)
(44.1981 10.234 -7.98093e-20)
(44.134 10.7019 4.66016e-20)
(44.1207 11.2765 -3.49865e-19)
(44.0367 11.8168 1.17279e-19)
(43.9335 12.2818 -6.58717e-20)
(43.8864 12.7935 1.76434e-19)
(43.8676 13.3141 8.60739e-20)
(43.8082 13.8113 2.20209e-19)
(43.7471 14.2768 -3.04427e-19)
(43.7698 14.7179 2.06847e-19)
(43.8114 15.1818 -1.88199e-19)
(43.8499 15.6061 -2.14713e-19)
(43.9535 16.0041 -2.15032e-19)
(44.077 16.3831 0)
(44.2002 16.7423 5.78458e-19)
(44.3783 17.0846 -2.14518e-19)
(44.5697 17.3608 -5.1968e-19)
(44.7682 17.6293 6.29006e-19)
(45.1028 17.9271 -1.84124e-20)
(45.3289 18.1052 -4.49253e-19)
(45.3599 18.127 -1.70536e-20)
(44.9638 17.9298 -6.82962e-19)
(43.0079 17.071 -1.63013e-18)
(37.4972 14.7349 9.09346e-19)
(25.2954 9.54592 0)
(6.74624 1.78923 -1.19616e-18)
(-0.837957 -0.161573 2.31351e-18)
(41.0367 0.247569 4.27434e-22)
(43.535 0.186019 2.20298e-19)
(43.605 0.845122 -7.5105e-20)
(43.69 0.953619 -2.46078e-21)
(43.7559 1.40501 1.6274e-19)
(43.8748 1.67793 0)
(44.0168 2.00682 0)
(44.1673 2.37682 -8.64495e-21)
(44.3069 2.75265 4.61914e-19)
(44.4262 3.15587 -1.59246e-19)
(44.5309 3.52896 1.2873e-20)
(44.6566 3.93198 -2.89818e-20)
(44.7784 4.38224 1.19585e-19)
(44.8956 4.8452 -1.15754e-19)
(44.9922 5.33132 4.88947e-19)
(45.0668 5.83499 -1.07444e-19)
(45.1269 6.35211 1.21129e-19)
(45.1629 6.88394 3.01138e-20)
(45.1815 7.42808 -3.02843e-19)
(45.1836 7.97969 -1.87173e-19)
(45.1596 8.54013 -2.16815e-22)
(45.1094 9.10238 -4.65766e-20)
(45.0637 9.69643 0)
(45.0558 10.3667 -1.70252e-19)
(44.9449 10.9842 -1.57786e-22)
(44.7495 11.473 1.46072e-20)
(44.646 11.9685 3.96052e-20)
(44.5998 12.5236 9.9997e-20)
(44.5204 13.0224 0)
(44.4228 13.4773 5.78298e-20)
(44.385 13.9175 3.12947e-19)
(44.3965 14.3558 2.71721e-19)
(44.3595 14.7965 -1.28194e-19)
(44.3454 15.1756 2.94998e-19)
(44.4147 15.56 -2.48273e-19)
(44.471 15.9357 -1.52214e-19)
(44.5457 16.2808 0)
(44.6775 16.5962 -3.88265e-19)
(44.8023 16.8612 -2.5099e-19)
(44.9484 17.1338 2.80344e-19)
(45.1856 17.3875 -3.28143e-19)
(45.4046 17.6065 3.70143e-19)
(45.4641 17.657 0)
(45.2569 17.5952 2.81701e-19)
(44.0172 17.1111 0)
(40.3426 15.6107 3.90086e-19)
(31.741 12.0775 -8.78276e-19)
(16.0201 5.5244 4.91771e-19)
(2.41759 0.622499 0)
(-1.46129 -0.114732 1.46117e-19)
(41.3152 0.269 6.60648e-23)
(43.9318 0.138165 7.56629e-23)
(44.0385 0.747925 7.71713e-20)
(44.1406 0.821464 3.84408e-22)
(44.2559 1.28623 3.3307e-21)
(44.4038 1.56223 5.01921e-22)
(44.5414 1.94973 -5.58688e-22)
(44.6937 2.31849 1.31807e-21)
(44.8509 2.70657 -1.74781e-19)
(45.0115 3.11838 -3.73424e-21)
(45.2017 3.59406 -1.97982e-21)
(45.3756 4.0904 4.46592e-21)
(45.5171 4.58478 1.44993e-19)
(45.6514 5.1036 -1.67695e-19)
(45.7534 5.63947 -2.00774e-19)
(45.8296 6.18949 1.07461e-19)
(45.8827 6.7566 -1.17014e-19)
(45.9089 7.33296 -5.27455e-21)
(45.9143 7.91642 -5.92759e-21)
(45.8917 8.50616 0)
(45.8527 9.08964 -7.41443e-21)
(45.7939 9.66202 -3.69861e-21)
(45.708 10.1974 4.1366e-21)
(45.5597 10.6489 0)
(45.4496 11.0973 0)
(45.4236 11.6625 1.54609e-19)
(45.3429 12.2161 0)
(45.2076 12.6637 -1.00126e-19)
(45.1059 13.1191 0)
(45.0656 13.5899 4.75888e-21)
(44.9933 14.0415 -1.54653e-19)
(44.8768 14.456 1.1166e-20)
(44.8441 14.8183 -2.04497e-19)
(44.872 15.2108 1.85997e-20)
(44.8705 15.5705 1.12284e-19)
(44.9138 15.8857 1.7221e-19)
(44.9982 16.1772 -6.08671e-21)
(45.0583 16.4452 0)
(45.1589 16.7144 -4.12831e-21)
(45.3115 16.934 4.72828e-21)
(45.4761 17.1806 0)
(45.5269 17.2586 -6.10529e-21)
(45.3877 17.2702 -3.08607e-20)
(44.5532 17.0008 -2.48019e-19)
(42.0335 16.0129 -5.01472e-21)
(35.7718 13.5287 0)
(23.5902 8.65833 0)
(6.66862 2.13485 6.633e-20)
(-0.519563 0.187143 -6.58646e-20)
(-1.7406 -0.131969 1.49744e-19)
(41.537 0.190614 1.71881e-19)
(44.2952 0.125226 1.91244e-19)
(44.3799 0.742169 1.05916e-19)
(44.4892 0.802412 1.24355e-19)
(44.5642 1.24718 1.31434e-19)
(44.7238 1.48912 -1.55241e-19)
(44.9063 1.81744 0)
(45.1022 2.18306 0)
(45.2872 2.56477 1.21618e-19)
(45.4667 2.97517 3.73378e-21)
(45.6261 3.36801 -1.51887e-19)
(45.7836 3.7867 -1.05535e-20)
(45.9526 4.26032 -2.00559e-19)
(46.116 4.7561 2.29902e-19)
(46.2577 5.28244 2.85501e-19)
(46.3759 5.82749 0)
(46.4717 6.392 0)
(46.5384 6.97261 5.27337e-21)
(46.5808 7.56599 5.92632e-21)
(46.6009 8.16396 -2.56688e-19)
(46.5853 8.77023 7.41215e-21)
(46.5379 9.37404 0)
(46.4775 9.99669 0)
(46.4549 10.6947 -4.45133e-20)
(46.3386 11.3591 -2.16158e-19)
(46.1107 11.871 6.12557e-20)
(45.9438 12.3298 0)
(45.8491 12.8505 -1.44739e-19)
(45.7469 13.3406 0)
(45.588 13.7643 -4.75714e-21)
(45.4609 14.1465 0)
(45.4304 14.5103 0)
(45.3779 14.9017 5.89759e-20)
(45.3025 15.222 6.93854e-20)
(45.3136 15.524 0)
(45.3316 15.8267 0)
(45.334 16.1068 6.08318e-21)
(45.4 16.3663 0)
(45.4855 16.5683 4.0784e-21)
(45.5987 16.8441 -1.53209e-19)
(45.6459 16.9438 1.73663e-19)
(45.5548 16.9887 1.34499e-20)
(44.9792 16.8589 7.63114e-21)
(43.1676 16.1858 -2.73766e-19)
(38.3676 14.3658 -1.57918e-19)
(28.5161 10.5558 8.98239e-19)
(12.0837 4.23297 -4.0271e-19)
(1.59653 0.858366 -4.62351e-19)
(-1.93074 0.118852 3.79603e-19)
(-1.6867 -0.0141864 0)
(41.7275 0.186126 -1.71185e-19)
(44.6248 0.0306508 2.3651e-19)
(44.755 0.569794 -1.03888e-19)
(44.8746 0.590126 1.53576e-19)
(45.0301 1.03281 -1.39245e-19)
(45.2168 1.26382 1.59745e-19)
(45.3971 1.63787 1.24763e-20)
(45.6021 1.99004 -1.3891e-20)
(45.8218 2.37336 -1.04952e-19)
(46.0405 2.78682 -1.84798e-20)
(46.298 3.27236 1.61238e-19)
(46.5435 3.79262 4.2836e-19)
(46.7517 4.31752 -2.80713e-19)
(46.9525 4.87142 -2.10202e-19)
(47.1305 5.455 -9.64206e-19)
(47.2657 6.06058 4.32758e-20)
(47.3625 6.68511 -4.83006e-20)
(47.423 7.32321 4.78006e-19)
(47.4531 7.96934 6.2317e-20)
(47.4426 8.6248 1.86765e-19)
(47.4008 9.26892 0)
(47.3265 9.89786 0)
(47.2238 10.4918 0)
(47.031 10.9813 0)
(46.843 11.4223 2.16347e-19)
(46.7684 11.9816 -5.58776e-19)
(46.6619 12.5713 0)
(46.4713 13.0388 4.78876e-19)
(46.2712 13.4552 0)
(46.1545 13.8698 0)
(46.0499 14.2749 -4.40304e-19)
(45.8706 14.6606 2.3113e-19)
(45.74 14.9556 -5.17546e-19)
(45.7242 15.2741 1.5078e-19)
(45.6805 15.5837 0)
(45.643 15.8389 0)
(45.6803 16.0649 2.15722e-19)
(45.7025 16.2601 -7.35111e-19)
(45.7704 16.5497 0)
(45.8157 16.6678 -4.70625e-19)
(45.7226 16.719 7.19858e-19)
(45.269 16.6724 -8.2563e-19)
(43.8733 16.2121 4.75613e-19)
(40.0018 14.8124 -5.54533e-19)
(31.7791 11.7007 1.39824e-18)
(17.2409 6.17371 -1.2216e-18)
(4.0876 1.65965 7.89067e-19)
(-1.16923 0.435294 -1.76217e-18)
(-2.48486 0.134812 2.08763e-18)
(-1.54607 0.075481 -1.34049e-18)
(41.8546 0.0675472 -4.21603e-19)
(44.8874 -0.0116487 4.11689e-20)
(45.0119 0.489609 0)
(45.1429 0.501706 -2.75863e-19)
(45.2673 0.89355 -7.13857e-19)
(45.4678 1.07981 2.34565e-20)
(45.7062 1.3827 0)
(45.9677 1.72838 0)
(46.2239 2.09415 -3.75532e-20)
(46.4795 2.50294 4.18329e-20)
(46.7111 2.90289 -8.36122e-19)
(46.942 3.33722 5.41501e-19)
(47.1861 3.83681 4.928e-19)
(47.4051 4.36814 -6.46947e-19)
(47.5975 4.93212 6.48812e-19)
(47.775 5.5306 1.00532e-19)
(47.9233 6.15736 -1.08384e-18)
(48.0355 6.80432 -1.58147e-18)
(48.1126 7.46974 0)
(48.1536 8.14139 7.03204e-19)
(48.1497 8.82069 7.87631e-19)
(48.1032 9.49509 0)
(48.011 10.1714 -9.7361e-19)
(47.9463 10.9176 0)
(47.8215 11.6765 0)
(47.5465 12.2659 5.57026e-19)
(47.2796 12.7179 3.77831e-19)
(47.0834 13.202 7.88247e-19)
(46.9203 13.6889 0)
(46.687 14.1098 0)
(46.4288 14.4591 2.09455e-19)
(46.2968 14.7398 2.56119e-19)
(46.2232 15.0751 8.61691e-19)
(46.0852 15.3532 -7.68818e-22)
(46.0032 15.5758 1.33362e-21)
(45.9856 15.8 -7.85812e-19)
(45.94 16.0155 -7.02434e-21)
(45.9738 16.298 9.61293e-19)
(46.0162 16.4302 5.6159e-19)
(45.9058 16.4917 3.12807e-19)
(45.5092 16.4932 7.21999e-19)
(44.3702 16.1778 1.54635e-20)
(41.2041 15.0886 -9.56542e-19)
(34.1535 12.4579 -5.44667e-19)
(21.0262 7.54216 -1.52978e-18)
(6.52903 2.49522 1.7151e-18)
(-0.0229759 0.742703 -7.64882e-19)
(-2.31157 0.264938 0)
(-2.53299 0.176443 0)
(-1.31495 0.118901 2.63271e-19)
(41.8178 0.012194 1.30107e-18)
(45.0889 -0.12821 5.4194e-19)
(45.2712 0.252325 -5.70341e-19)
(45.4238 0.218019 2.00199e-20)
(45.6191 0.595407 1.43943e-18)
(45.8679 0.751067 -2.56002e-20)
(46.1168 1.09188 0)
(46.3907 1.4 -1.16657e-18)
(46.6852 1.75272 -4.16356e-20)
(46.9869 2.14667 -2.0394e-21)
(47.3303 2.62893 1.81308e-18)
(47.6708 3.16021 -9.02059e-19)
(47.9715 3.70813 2.78715e-21)
(48.2612 4.2985 5.61237e-19)
(48.5252 4.92776 0)
(48.7552 5.59357 0)
(48.944 6.29335 8.38442e-19)
(49.0616 7.0142 1.24718e-18)
(49.1337 7.75155 0)
(49.1513 8.50206 -7.00947e-19)
(49.1164 9.24706 -7.84846e-19)
(49.0267 9.97846 -2.33623e-19)
(48.8901 10.6723 1.14502e-19)
(48.662 11.2635 9.45913e-19)
(48.3655 11.7345 3.16997e-19)
(48.1944 12.2927 3.37234e-19)
(48.0318 12.9386 -1.07413e-18)
(47.7681 13.4839 -7.56853e-19)
(47.4361 13.9048 9.21433e-19)
(47.1683 14.2674 -9.89302e-19)
(46.9889 14.6087 0)
(46.7605 14.9768 0)
(46.4983 15.2203 1.61713e-20)
(46.3803 15.4398 -6.64552e-19)
(46.3015 15.6803 7.45448e-19)
(46.1952 15.8802 1.23679e-18)
(46.2076 16.0878 -4.42088e-19)
(46.2342 16.2228 -1.01144e-18)
(46.0999 16.2779 -1.12606e-18)
(45.7435 16.3022 -6.3242e-19)
(44.7814 16.0805 -1.24192e-20)
(42.177 15.2433 8.46574e-19)
(35.9263 12.9664 0)
(23.55 8.45081 5.39813e-19)
(8.65209 3.35682 6.03255e-19)
(1.16612 1.25099 6.70101e-19)
(-1.84389 0.645703 2.25116e-18)
(-2.75196 0.448692 -8.38414e-19)
(-2.37382 0.338893 0)
(-1.07387 0.157055 0)
(41.7161 -0.0220038 3.47702e-20)
(45.2072 -0.188823 -1.00861e-18)
(45.3861 0.139248 5.8807e-19)
(45.5606 0.071701 -1.37133e-18)
(45.728 0.376736 -7.93875e-19)
(45.9929 0.47973 -1.18365e-21)
(46.3008 0.731282 3.17801e-20)
(46.6395 1.01859 1.0866e-18)
(46.9868 1.3407 8.63862e-20)
(47.3379 1.72221 1.05954e-19)
(47.6646 2.10519 -9.16658e-19)
(47.9999 2.53787 -1.37853e-19)
(48.3478 3.05383 -1.37418e-18)
(48.6767 3.61822 -1.60112e-18)
(48.9708 4.23054 2.24575e-19)
(49.2133 4.88562 -2.50493e-19)
(49.4284 5.57899 0)
(49.6142 6.31541 -1.41176e-18)
(49.7531 7.07715 0)
(49.8365 7.85532 0)
(49.8613 8.64343 0)
(49.8241 9.4325 -5.32328e-19)
(49.723 10.2156 1.70573e-18)
(49.5877 11.0353 -1.22338e-18)
(49.452 11.9283 0)
(49.1339 12.682 -3.81966e-19)
(48.7408 13.2046 -1.36304e-18)
(48.3787 13.67 -1.91941e-18)
(48.0942 14.1531 -1.38745e-18)
(47.7766 14.5943 9.25959e-19)
(47.3713 14.959 -1.10361e-18)
(47.0443 15.1587 6.03046e-19)
(46.8921 15.3938 1.31012e-18)
(46.7061 15.6214 0)
(46.5112 15.7621 7.94094e-19)
(46.4681 15.8985 -1.65419e-18)
(46.4315 16.0487 -6.93459e-21)
(46.276 16.088 9.92968e-19)
(45.9499 16.1085 5.47425e-19)
(45.1 15.9384 0)
(42.8263 15.2402 7.58149e-19)
(37.2371 13.286 -8.62336e-19)
(25.198 9.03722 1.9357e-18)
(10.6143 4.20043 0)
(2.33857 1.89836 -2.38338e-18)
(-1.15302 1.2804 6.61397e-19)
(-2.52786 1.13805 -7.29791e-19)
(-2.86995 1.02195 -8.19647e-19)
(-2.33572 0.702583 1.83999e-18)
(-0.981297 0.254267 1.55449e-21)
(41.5169 -0.0978401 -9.32115e-19)
(45.2397 -0.345608 1.07792e-18)
(45.4848 -0.127994 -1.22709e-18)
(45.6809 -0.255805 2.78314e-18)
(45.937 0.0182679 -1.68552e-18)
(46.2505 0.0747641 1.17537e-19)
(46.5646 0.344114 -1.1833e-18)
(46.9246 0.57129 0)
(47.316 0.871081 -1.54586e-18)
(47.7189 1.21472 1.93604e-18)
(48.1733 1.66223 6.85131e-21)
(48.6328 2.17702 -1.48921e-19)
(49.0569 2.7244 1.36957e-18)
(49.4716 3.33418 -1.45136e-19)
(49.857 4.0063 1.7842e-18)
(50.2051 4.72988 2.76464e-19)
(50.5136 5.50536 0)
(50.7745 6.32237 1.40527e-18)
(50.9336 7.18003 3.5817e-18)
(51.0134 8.059 0)
(51.015 8.94931 0)
(50.9393 9.83493 0)
(50.7824 10.6979 -2.19249e-18)
(50.5186 11.4608 -3.89818e-18)