/*--------------------------------*- C++ -*----------------------------------*\
| =========                 |                                                 |
| \\      /  F ield         | OpenFOAM: The Open Source CFD Toolbox           |
|  \\    /   O peration     | Version:  v1912                                 |
|   \\  /    A nd           | Website:  www.openfoam.com                      |
|    \\/     M anipulation  |                                                 |
\*---------------------------------------------------------------------------*/
FoamFile
{
    version     2.0;
    format      ascii;
    class       volScalarField;
    location    "0.18";
    object      p;
}
// * * * * * * * * * * * * * * * * * * * * * * * * * * * * * * * * * * * * * //

dimensions      [0 2 -2 0 0 0 0];


internalField   nonuniform List<scalar> 
6600
(
51.712
46.8735
44.3842
42.9157
42.26
42.0521
41.9975
42.2973
43.0332
44.2571
45.8288
47.7312
50.043
52.7881
55.9351
59.4808
63.4336
67.8212
72.6414
77.8683
83.5025
89.477
95.7477
102.214
108.95
115.965
123.071
130.082
136.9
143.41
149.495
154.995
159.702
163.378
165.772
166.557
165.312
161.674
155.291
145.696
132.395
114.918
92.5676
64.6691
30.5952
-10.4507
-58.6605
-114.895
-180.454
-247.246
48.2111
43.0028
41.0453
39.2197
38.1268
37.526
37.1694
37.1672
37.538
38.346
39.6526
41.3311
43.3317
45.6877
48.4513
51.5932
55.1006
59.0067
63.294
67.9368
72.9384
78.2388
83.8375
89.6547
95.3656
101.163
107.126
112.905
118.393
123.532
128.13
131.937
134.757
136.392
136.6
135.026
131.257
124.933
115.676
103.017
86.4389
65.4089
39.3324
7.55616
-30.5425
-75.7502
-128.224
-188.157
-255.968
-322.936
43.4097
37.6145
36.4935
34.3635
33.0195
32.1097
31.5596
31.4145
31.6365
32.1969
33.1067
34.4424
36.2306
38.302
40.7201
43.5157
46.653
50.1418
53.953
58.0635
62.4599
67.0938
71.9048
76.891
81.8757
86.7481
91.4892
95.9824
100.1
103.695
106.599
108.59
109.431
108.881
106.69
102.559
96.0857
86.8918
74.6018
58.7434
38.7994
14.2526
-15.3885
-50.6867
-92.2254
-140.713
-196.324
-258.345
-325.58
-388.852
37.4928
31.3118
30.7588
28.3294
26.8488
25.7353
25.0226
24.6764
24.7322
25.2227
25.9305
26.9969
28.4438
30.2422
32.4016
34.8647
37.6482
40.7265
44.0694
47.6471
51.436
55.3945
59.4901
63.6271
67.6434
71.4936
75.0914
78.2949
80.9593
82.9751
84.1552
84.2423
83.0076
80.2223
75.6141
68.862
59.6225
47.5396
32.2191
13.2245
-9.90361
-37.6236
-70.3341
-108.465
-152.492
-203.04
-260.139
-322.304
-387.131
-444.407
30.6732
24.0487
23.7687
21.0357
19.555
18.3134
17.4552
16.9823
16.9368
17.1584
17.7126
18.5416
19.7114
21.2173
23.0318
25.1461
27.5218
30.1419
32.9761
35.9826
39.1179
42.3216
45.5277
48.7297
51.8284
54.6448
57.0691
58.9826
60.2243
60.6234
60.0297
58.227
54.9671
49.9878
43.0165
33.7719
21.9163
7.10681
-10.9895
-32.7521
-58.565
-88.7755
-123.689
-163.633
-208.948
-260.036
-316.916
-377.952
-438.969
-488.434
23.0463
15.9553
15.6138
12.5461
11.0713
9.81145
8.77985
8.11354
7.82613
7.83813
8.18978
8.78049
9.62398
10.7799
12.2111
13.8755
15.757
17.8357
20.0797
22.4386
24.8594
27.2871
29.6845
31.9385
33.9266
35.5838
36.8188
37.4532
37.2861
36.154
33.8823
30.262
25.0594
18.0321
8.91675
-2.58633
-16.7587
-33.8696
-54.2244
-78.1233
-105.842
-137.638
-173.719
-214.301
-259.632
-309.991
-365.207
-423.616
-479.534
-519.812
14.2106
6.90144
6.31125
2.96691
1.44278
0.0664462
-1.03041
-1.84203
-2.44063
-2.69284
-2.68884
-2.40015
-1.90639
-1.2148
-0.304492
0.818638
2.11582
3.55653
5.11697
6.73993
8.36846
9.93798
11.3799
12.6697
13.684
14.2495
14.2488
13.5621
12.0275
9.43688
5.59377
0.309585
-6.6256
-15.4607
-26.4451
-39.7927
-55.7581
-74.5936
-96.5102
-121.728
-150.447
-182.815
-218.946
-258.981
-303.122
-351.661
-404.228
-458.716
-508.773
-539.12
3.92685
-3.24232
-4.14964
-7.68684
-9.21749
-10.8492
-12.1342
-13.191
-13.9095
-14.5491
-14.9541
-15.1766
-15.1821
-14.9935
-14.6824
-14.2038
-13.5981
-12.8884
-12.094
-11.2704
-10.4756
-9.76754
-9.19226
-8.87711
-8.96505
-9.53574
-10.6743
-12.5749
-15.4379
-19.3924
-24.6047
-31.3086
-39.7174
-50.0137
-62.3904
-77.0793
-94.2708
-114.119
-136.804
-162.481
-191.26
-223.227
-258.424
-296.904
-338.815
-384.511
-433.796
-483.754
-527.472
-548.569
-8.00549
-14.6965
-15.764
-19.4001
-21.0974
-22.8502
-24.4309
-25.767
-26.92
-27.9398
-28.8025
-29.5268
-30.1308
-30.6243
-30.9725
-31.2103
-31.3774
-31.4651
-31.5108
-31.5524
-31.6412
-31.857
-32.2775
-32.9324
-33.9339
-35.4645
-37.6964
-40.7438
-44.714
-49.8055
-56.2075
-64.0688
-73.5523
-84.8576
-98.1705
-113.614
-131.337
-151.493
-174.18
-199.484
-227.476
-258.171
-291.551
-327.631
-366.516
-408.481
-453.688
-499.165
-537.593
-552.205
-21.4188
-27.4085
-28.5006
-32.0978
-33.9394
-36.0601
-37.9805
-39.691
-41.3487
-42.8524
-44.2905
-45.5634
-46.8712
-48.0675
-49.1835
-50.2408
-51.2299
-52.1744
-53.1061
-54.0411
-55.0143
-56.1048
-57.3657
-58.9315
-60.9372
-63.4495
-66.5595
-70.4683
-75.3721
-81.3626
-88.5625
-97.1651
-107.34
-119.203
-132.863
-148.473
-166.144
-185.929
-207.902
-232.114
-258.573
-287.271
-318.167
-351.195
-386.354
-424.198
-464.244
-504.476
-538.61
-551.346
-36.1429
-41.2529
-42.3208
-45.8865
-47.8198
-50.244
-52.4841
-54.6769
-56.7963
-58.9161
-61.106
-63.2092
-65.2116
-67.2127
-69.1941
-71.1191
-73.0013
-74.8445
-76.6749
-78.5122
-80.3843
-82.3627
-84.5288
-86.9339
-89.6714
-92.8896
-96.7501
-101.362
-106.823
-113.313
-120.998
-129.982
-140.352
-152.243
-165.784
-181.025
-198.022
-216.849
-237.525
-260.043
-284.388
-310.501
-338.303
-367.735
-398.797
-431.717
-465.304
-497.668
-523.255
-535.703
-51.4744
-56.0188
-57.0431
-60.3919
-62.5225
-65.3322
-68.0505
-70.7499
-73.5444
-76.3975
-79.1655
-82.1832
-85.1484
-88.0505
-90.9407
-93.7934
-96.616
-99.3851
-102.124
-104.844
-107.562
-110.319
-113.175
-116.254
-119.691
-123.541
-127.866
-132.82
-138.593
-145.287
-152.987
-161.836
-171.974
-183.469
-196.356
-210.716
-226.601
-243.995
-262.885
-283.255
-305.036
-328.132
-352.407
-377.623
-404.338
-431.469
-457.304
-478.38
-489.862
-499.065
-67.1807
-71.3121
-72.3337
-75.5822
-77.8514
-80.9715
-84.2205
-87.5697
-91.0384
-94.7682
-98.5915
-102.301
-106.222
-110.207
-114.12
-118.003
-121.814
-125.547
-129.205
-132.799
-136.349
-139.877
-143.438
-147.092
-150.909
-154.989
-159.506
-164.57
-170.247
-176.675
-184.03
-192.411
-201.862
-212.468
-224.322
-237.433
-251.771
-267.342
-284.12
-302.022
-320.958
-340.761
-361.139
-382.162
-403.475
-423.98
-442.095
-454.719
-458.397
-461.642
-83.2339
-86.5641
-87.6093
-90.9956
-93.5607
-97.1553
-100.885
-104.995
-109.353
-113.785
-118.578
-123.6
-128.573
-133.55
-138.598
-143.572
-148.443
-153.196
-157.804
-162.265
-166.582
-170.758
-174.81
-178.823
-182.912
-187.144
-191.556
-196.283
-201.527
-207.407
-213.991
-221.396
-229.768
-239.179
-249.618
-261.098
-273.645
-287.191
-301.642
-316.923
-332.901
-349.351
-366.119
-382.966
-399.126
-413.639
-424.979
-431.845
-437.73
-438.479
-99.0206
-101.472
-102.574
-106.053
-108.951
-113.15
-117.593
-122.381
-127.691
-133.407
-139.153
-145.137
-151.367
-157.687
-163.929
-170.092
-176.125
-181.983
-187.615
-192.98
-198.071
-202.885
-207.435
-211.746
-215.852
-219.835
-223.861
-228.058
-232.483
-237.288
-242.697
-248.848
-255.794
-263.595
-272.343
-282.05
-292.623
-303.993
-316.097
-328.806
-341.976
-355.39
-368.89
-381.977
-393.964
-404.158
-411.426
-414.863
-418.564
-419.697
-113.777
-115.375
-116.749
-120.453
-123.83
-128.598
-133.811
-139.656
-145.85
-152.575
-159.747
-167.14
-174.597
-182.204
-189.826
-197.347
-204.688
-211.765
-218.495
-224.834
-230.727
-236.14
-241.049
-245.475
-249.503
-253.193
-256.598
-259.831
-263.124
-266.655
-270.532
-274.92
-280.023
-285.998
-292.851
-300.54
-309.065
-318.356
-328.262
-338.67
-349.41
-360.178
-370.768
-380.88
-389.805
-396.556
-400.4
-404.481
-405.492
-406.722
-126.826
-127.856
-129.506
-133.526
-137.425
-142.96
-148.87
-155.713
-163.232
-171.188
-179.59
-188.385
-197.461
-206.613
-215.772
-224.823
-233.638
-242.11
-250.125
-257.596
-264.415
-270.531
-275.899
-280.509
-284.379
-287.526
-290.059
-292.183
-294.011
-295.721
-297.613
-299.965
-302.965
-306.727
-311.385
-317.03
-323.566
-330.855
-338.838
-347.405
-356.035
-364.492
-372.846
-380.58
-386.94
-391.186
-393.9
-395.843
-397.029
-397.707
-137.577
-138.023
-140.223
-144.664
-149.213
-155.706
-162.685
-170.396
-179.069
-188.501
-198.468
-208.849
-219.524
-230.402
-241.355
-252.177
-262.72
-272.834
-282.362
-291.16
-299.097
-306.07
-311.969
-316.728
-320.382
-323.007
-324.657
-325.412
-325.5
-325.233
-324.861
-324.664
-324.97
-326.16
-328.442
-331.82
-336.286
-341.832
-348.418
-355.338
-362.093
-368.933
-375.44
-380.968
-384.93
-387.307
-389.51
-390.437
-391.496
-391.783
-145.452
-145.913
-148.653
-153.454
-158.677
-165.937
-173.935
-183.138
-193.1
-203.887
-215.435
-227.572
-240.165
-253.005
-265.951
-278.817
-291.375
-303.411
-314.744
-325.189
-334.557
-342.687
-349.422
-354.665
-358.368
-360.496
-361.108
-360.431
-358.639
-355.941
-352.723
-349.489
-346.765
-344.908
-344.207
-345.006
-347.48
-351.569
-356.754
-362.158
-367.969
-373.771
-378.477
-381.615
-383.335
-384.955
-385.901
-386.88
-387.779
-388.008
-149.342
-150.789
-154.181
-159.675
-165.539
-173.902
-182.755
-193.04
-204.563
-216.929
-230.185
-244.223
-258.832
-273.822
-289.04
-304.226
-319.134
-333.509
-347.071
-359.558
-370.741
-380.416
-388.34
-394.322
-398.224
-400.079
-399.968
-397.873
-393.99
-388.72
-382.484
-375.772
-369.138
-363.321
-359.033
-356.735
-356.661
-358.875
-362.827
-368.032
-373.918
-378.78
-381.601
-382.631
-383.198
-383.537
-384.128
-384.892
-385.594
-385.843
-149.491
-152.571
-156.553
-162.893
-169.629
-178.861
-188.703
-200.195
-212.959
-226.984
-241.962
-257.958
-274.769
-292.17
-309.915
-327.744
-345.379
-362.49
-378.734
-393.785
-407.317
-419.017
-428.652
-435.973
-440.749
-442.826
-442.128
-438.757
-432.955
-424.943
-415.115
-404.097
-392.854
-382.323
-373.383
-366.803
-363.255
-363.411
-366.828
-372.768
-378.956
-383.051
-384.841
-384.957
-384.368
-383.996
-383.823
-383.812
-383.94
-384.171
-145.984
-151.05
-155.737
-162.797
-170.504
-180.682
-191.357
-204.207
-218.213
-233.607
-250.455
-268.482
-287.503
-307.424
-327.93
-348.727
-369.473
-389.768
-409.228
-427.434
-443.932
-458.355
-470.36
-479.611
-485.734
-488.517
-487.89
-483.764
-476.15
-465.391
-451.945
-436.498
-419.841
-403.047
-387.657
-375.388
-367.186
-364.177
-366.682
-373.568
-381.173
-386.128
-387.895
-387.79
-386.743
-385.132
-383.595
-382.493
-381.905
-381.744
-139.493
-146.611
-151.772
-159.829
-168.269
-179.251
-190.87
-204.617
-219.97
-236.789
-255.166
-275.128
-296.494
-318.985
-342.401
-366.414
-390.636
-414.588
-437.801
-459.776
-479.985
-497.891
-513.027
-525.002
-533.43
-537.849
-538.006
-533.672
-524.916
-511.82
-494.745
-474.228
-451.216
-427.133
-403.718
-383.083
-367.149
-358.544
-359.613
-368.259
-378.987
-386.407
-389.031
-388.583
-387.079
-384.706
-382.106
-380.033
-378.764
-378.115
-130.649
-139.32
-145.142
-153.987
-163.294
-174.589
-187.112
-201.883
-217.977
-236.123
-256.139
-277.874
-301.354
-326.418
-352.807
-380.175
-408.131
-436.145
-463.667
-490.083
-514.742
-537.005
-556.24
-571.887
-583.424
-590.266
-592.1
-588.757
-579.673
-564.805
-544.429
-519.162
-489.858
-457.501
-423.589
-391.221
-364.234
-348.242
-346.337
-355.374
-369.175
-381.09
-386.158
-386.55
-385.304
-383.124
-380.347
-377.747
-375.954
-374.674
-120.197
-130.365
-136.265
-145.717
-155.578
-167.119
-180.229
-195.579
-212.607
-231.741
-252.933
-276.358
-301.896
-329.386
-358.667
-389.45
-421.295
-453.666
-485.934
-517.378
-547.263
-574.791
-599.145
-619.556
-635.35
-645.939
-650.756
-649.249
-640.992
-625.646
-603.075
-573.514
-537.485
-495.694
-450.733
-405.326
-364.356
-336.496
-328.012
-335.473
-352.169
-367.28
-379.192
-385.561
-387.066
-385.566
-382.747
-379.689
-377.38
-375.702
-108.69
-119.954
-125.871
-135.833
-145.704
-157.599
-170.837
-186.284
-203.796
-223.736
-246.02
-270.698
-297.929
-327.674
-359.71
-393.815
-429.592
-466.497
-503.844
-540.846
-576.636
-610.288
-640.826
-667.224
-688.553
-703.964
-712.818
-714.61
-708.76
-694.483
-671.011
-638.287
-596.828
-547.706
-491.596
-430.296
-371.554
-331.572
-314.676
-317.976
-337.206
-358.815
-377.573
-388.914
-392.994
-392.227
-389.027
-385.406
-382.787
-381.277
-98.1197
-108.218
-115.299
-124.772
-134.197
-146.094
-159.346
-174.79
-192.27
-212.491
-235.321
-261.003
-289.647
-321.232
-355.752
-393.012
-432.634
-474.12
-516.744
-559.648
-601.894
-642.459
-680.188
-713.807
-742.02
-763.788
-778.357
-784.978
-782.827
-771.32
-749.336
-716.092
-671.856
-615.763
-546.353
-471.36
-401.395
-347.684
-318.042
-313.344
-330.453
-355.609
-377.55
-391.349
-396.603
-396.121
-393.138
-389.91
-387.948
-387.187
-88.7424
-96.5646
-104.229
-113.335
-122.494
-133.72
-146.562
-161.647
-178.819
-198.814
-221.811
-247.911
-277.394
-310.32
-346.852
-386.955
-430.253
-476.238
-524.172
-573.188
-622.314
-670.428
-716.273
-758.229
-794.691
-824.304
-845.903
-858.759
-862.203
-855.474
-837.927
-806.13
-760.433
-696.751
-619.024
-535.835
-460.944
-397.91
-358.763
-344.621
-347.729
-362.436
-377.725
-388.876
-393.764
-393.715
-392.022
-390.355
-389.749
-390.021
-84.7106
-85.2751
-93.2953
-101.711
-110.593
-121.274
-133.396
-147.677
-164.353
-183.681
-206.239
-232.208
-261.942
-295.638
-333.547
-375.885
-422.507
-472.825
-526.034
-581.28
-637.589
-693.802
-748.387
-799.545
-845.437
-884.483
-914.777
-935.954
-947.039
-946.404
-933.767
-906.858
-856.665
-788.533
-709.35
-626.611
-545.785
-481.95
-437.428
-410.052
-396.744
-393.676
-395.5
-396.666
-395.178
-392.384
-389.96
-389.301
-389.77
-390.824
-102.033
-78.1862
-83.9136
-90.6905
-99.3223
-109.648
-120.978
-134.304
-149.976
-168.624
-190.45
-215.715
-245.15
-279.071
-317.776
-361.567
-410.76
-464.865
-522.977
-584.36
-648.01
-712.701
-775.93
-836.175
-891.969
-941.993
-982.547
-1013.54
-1034.14
-1039.97
-1028.38
-1007.51
-959.494
-890.213
-813.507
-732.68
-658.503
-593.481
-540.42
-499.21
-468.967
-447.234
-430.8
-417.07
-405.713
-396.275
-390.826
-389.867
-390.94
-392.404
58.3012
53.489
51.0293
49.6128
49.0408
48.9016
48.9461
49.3762
50.285
51.6974
53.4853
55.6511
58.264
61.3522
64.8639
68.8228
73.2427
78.1343
83.5135
89.3426
95.6243
102.319
109.371
116.689
124.266
132.217
140.325
148.383
156.344
164.17
171.663
178.601
184.842
190.21
194.45
197.26
198.304
197.209
193.568
186.988
177.014
163.098
144.689
121.139
91.8758
56.1353
13.4963
-36.457
-96.6368
-156.885
54.8265
49.7138
47.7985
46.0502
45.0517
44.5398
44.328
44.4729
45.0362
46.0647
47.6035
49.5746
51.9072
54.6271
57.7883
61.3782
65.3872
69.8285
74.7102
79.9942
85.6806
91.7391
98.1301
104.798
111.459
118.189
125.161
132.161
138.867
145.255
151.25
156.548
160.956
164.325
166.394
166.847
165.337
161.514
154.936
145.204
131.833
114.263
91.9518
64.2557
30.5792
-9.85042
-57.2509
-111.722
-175.038
-236.891
50.1045
44.4532
43.3897
41.3599
40.1247
39.3355
38.947
39.0033
39.4349
40.2683
41.4448
43.1096
45.2554
47.7345
50.6029
53.8915
57.5743
61.6467
66.1012
70.9059
76.0414
81.4725
87.1562
93.0377
98.9717
104.856
110.691
116.381
121.76
126.708
131.057
134.575
137.041
138.269
137.983
135.872
131.619
124.851
115.155
102.112
85.2396
63.9953
37.8657
6.26952
-31.3742
-75.7525
-127
-184.573
-248.297
-307.953
44.3398
38.3074
37.855
35.5273
34.1789
33.2306
32.6848
32.556
32.8742
33.653
34.688
36.1222
37.9707
40.2308
42.8899
45.8985
49.279
53.0011
57.0447
61.3807
65.9721
70.7718
75.7605
80.9115
85.9972
90.8798
95.6084
100.102
104.119
107.509
110.138
111.783
112.233
111.252
108.553
103.84
96.7873
87.0434
74.229
57.9187
37.6568
12.9794
-16.5556
-51.4403
-92.1783
-139.371
-193.061
-251.909
-314.393
-369.768
37.6737
31.2382
31.1069
28.4458
27.1455
26.0763
25.4326
25.1889
25.432
25.9654
26.8891
28.1284
29.7573
31.7754
34.1359
36.849
39.8839
43.207
46.8009
50.6263
54.6318
58.7489
62.9318
67.1859
71.401
75.3803
78.9921
82.17
84.8067
86.6986
87.6354
87.4265
85.8547
82.6906
77.6437
70.4147
60.6996
48.1498
32.424
13.1596
-10.0303
-37.5371
-69.7238
-106.972
-149.66
-198.234
-252.655
-311.355
-371.52
-421.028
30.2398
23.3148
23.1343
20.1899
18.9036
17.8399
17.0391
16.6504
16.6716
17.0421
17.8034
18.8593
20.2025
21.9012
23.9306
26.2538
28.8516
31.6951
34.7622
38.001
41.3597
44.772
48.1695
51.5305
54.745
57.6475
60.164
62.1351
63.3731
63.7357
63.0372
61.051
57.5722
52.3497
45.115
35.6016
23.5031
8.52652
-9.62073
-31.2468
-56.6608
-86.1523
-119.985
-158.445
-201.817
-250.408
-304.19
-361.494
-418.032
-460.277
21.6192
14.4921
14.0211
10.8407
9.51395
8.3619
7.52217
7.0165
6.76794
6.91585
7.34802
8.14203
9.1873
10.4723
12.0412
13.8764
15.9465
18.2166
20.6607
23.227
25.87
28.5179
31.0791
33.5011
35.7162
37.5734
38.9321
39.6421
39.5598
38.4981
36.2564
32.6272
27.3939
20.3462
11.2199
-0.236445
-14.2554
-31.1027
-51.0194
-74.2397
-100.985
-131.461
-165.854
-204.365
-247.252
-294.807
-346.651
-401.162
-453.154
-486.926
11.5711
4.57201
3.77469
0.405973
-0.9163
-2.29892
-3.29316
-4.01496
-4.35575
-4.56183
-4.48332
-4.17168
-3.58669
-2.74531
-1.70625
-0.456702
0.985447
2.59224
4.33442
6.15813
8.02257
9.8612
11.5955
13.1408
14.3508
15.1092
15.3535
14.9171
13.5668
11.1441
7.48946
2.40974
-4.29672
-12.86
-23.4861
-36.3724
-51.7459
-69.8038
-90.7285
-114.692
-141.858
-172.355
-206.281
-243.767
-285.041
-330.52
-379.829
-430.59
-476.898
-501.998
-0.156844
-6.71371
-7.66525
-11.1228
-12.5974
-14.0756
-15.338
-16.3061
-17.0442
-17.6112
-17.9338
-18.0677
-18.0242
-17.7955
-17.3683
-16.771
-16.0367
-15.1594
-14.1811
-13.1525
-12.1071
-11.1183
-10.2813
-9.67237
-9.38936
-9.55893
-10.3499
-11.9201
-14.3862
-17.9155
-22.7123
-28.9655
-36.8403
-46.4938
-58.1292
-71.926
-88.0281
-106.595
-127.768
-151.673
-178.396
-208.004
-240.562
-276.174
-315.007
-357.357
-403.3
-449.795
-490.163
-507.638
-13.4485
-19.3142
-20.2727
-23.6769
-25.2765
-27.1082
-28.6761
-29.984
-31.1805
-32.1578
-33.0476
-33.6685
-34.2696
-34.6891
-34.9646
-35.1191
-35.1404
-35.0526
-34.8825
-34.6666
-34.4485
-34.2837
-34.2458
-34.4285
-35.011
-36.1338
-37.8403
-40.2574
-43.6177
-48.0806
-53.7656
-60.8242
-69.4211
-79.7286
-91.876
-105.98
-122.188
-140.611
-161.334
-184.426
-209.955
-237.946
-268.385
-301.307
-336.917
-375.572
-416.929
-458.663
-494.218
-507.345
-28.1613
-33.1224
-34.0441
-37.3916
-39.0554
-41.1703
-43.0367
-44.7899
-46.4259
-47.9724
-49.521
-50.9464
-52.1796
-53.3478
-54.4328
-55.3762
-56.2125
-56.9515
-57.6042
-58.2017
-58.7951
-59.4349
-60.2069
-61.1913
-62.4896
-64.2333
-66.6151
-69.7806
-73.7814
-78.7538
-84.9054
-92.3845
-101.303
-111.76
-123.886
-137.795
-153.549
-171.218
-190.864
-212.539
-236.246
-261.967
-289.68
-319.347
-350.949
-385.113
-420.803
-456.228
-485.864
-498.566
-43.5105
-47.9057
-48.7964
-51.9165
-53.7553
-56.2256
-58.543
-60.767
-63.0223
-65.28
-67.3721
-69.6214
-71.7699
-73.788
-75.7019
-77.5181
-79.2152
-80.7987
-82.2774
-83.6697
-85.0227
-86.3827
-87.8075
-89.3817
-91.2576
-93.5648
-96.3657
-99.8004
-104.09
-109.347
-115.638
-123.097
-131.849
-142.015
-153.665
-166.844
-181.631
-198.063
-216.146
-235.87
-257.235
-280.203
-304.659
-330.444
-357.804
-386.481
-415.155
-441.325
-459.891
-471.654
-59.3502
-63.2826
-64.1795
-67.1983
-69.1709
-71.9399
-74.7573
-77.6073
-80.4986
-83.579
-86.6897
-89.6145
-92.6013
-95.6596
-98.5498
-101.301
-103.904
-106.368
-108.684
-110.86
-112.929
-114.934
-116.948
-119.048
-121.294
-123.788
-126.734
-130.281
-134.475
-139.466
-145.436
-152.476
-160.678
-170.103
-180.821
-192.895
-206.324
-221.103
-237.216
-254.645
-273.32
-293.13
-313.928
-335.608
-358.14
-380.56
-401.371
-417.261
-424.167
-431.319
-75.6608
-78.8128
-79.7057
-82.8231
-85.0774
-88.3121
-91.5859
-95.1863
-98.9433
-102.692
-106.711
-110.888
-114.94
-118.908
-122.831
-126.601
-130.175
-133.551
-136.71
-139.652
-142.381
-144.922
-147.332
-149.685
-152.103
-154.685
-157.482
-160.637
-164.397
-168.874
-174.144
-180.348
-187.562
-195.877
-205.341
-215.938
-227.68
-240.546
-254.48
-269.386
-285.158
-301.661
-318.669
-336.3
-353.716
-369.822
-383.395
-392.604
-397.534
-400.152
-91.8033
-94.093
-95.0424
-98.2513
-100.825
-104.639
-108.613
-112.853
-117.543
-122.548
-127.532
-132.633
-137.874
-143.059
-148.111
-153.01
-157.674
-162.056
-166.119
-169.85
-173.235
-176.276
-179.028
-181.553
-183.921
-186.187
-188.527
-191.137
-194.07
-197.506
-201.649
-206.605
-212.504
-219.386
-227.263
-236.169
-246.065
-256.876
-268.505
-280.876
-293.85
-307.185
-320.791
-334.371
-347.336
-358.711
-367.192
-371.798
-377.485
-378.926
-107.049
-108.466
-109.663
-113.109
-116.165
-120.546
-125.291
-130.59
-136.157
-142.165
-148.496
-154.959
-161.417
-167.844
-174.222
-180.402
-186.275
-191.759
-196.807
-201.388
-205.437
-208.932
-211.894
-214.361
-216.451
-218.317
-219.985
-221.551
-223.299
-225.428
-228.092
-231.483
-235.682
-240.805
-246.925
-253.983
-261.916
-270.651
-280.107
-290.138
-300.565
-311.206
-321.854
-332.25
-341.772
-349.489
-354.534
-358.035
-360.425
-362.329
-120.691
-121.545
-123.006
-126.77
-130.348
-135.508
-140.959
-147.263
-154.163
-161.389
-168.977
-176.817
-184.822
-192.8
-200.63
-208.232
-215.49
-222.294
-228.51
-234.059
-238.876
-242.917
-246.153
-248.62
-250.381
-251.454
-252.055
-252.437
-252.7
-253.067
-253.809
-255.144
-257.341
-260.501
-264.618
-269.716
-275.744
-282.579
-290.074
-298.132
-306.492
-314.788
-323.043
-330.877
-337.719
-342.793
-345.751
-348.77
-349.938
-351.365
-132.158
-132.349
-134.405
-138.597
-142.855
-148.989
-155.531
-162.724
-170.789
-179.534
-188.661
-198.126
-207.772
-217.45
-227.027
-236.324
-245.204
-253.525
-261.102
-267.817
-273.569
-278.261
-281.802
-284.149
-285.437
-285.828
-285.371
-284.173
-282.53
-280.769
-279.221
-278.23
-277.998
-278.759
-280.705
-283.808
-287.956
-293.038
-299.018
-305.523
-311.965
-318.444
-324.783
-330.417
-334.794
-337.598
-340.401
-341.868
-342.995
-343.705
-140.742
-140.989
-143.603
-148.145
-153.115
-160.068
-167.657
-176.412
-185.81
-195.912
-206.705
-217.918
-229.443
-241.111
-252.696
-264.005
-274.821
-284.943
-294.214
-302.407
-309.385
-315.007
-319.144
-321.741
-322.758
-322.248
-320.393
-317.481
-313.767
-309.549
-305.209
-301.17
-297.989
-296.05
-295.478
-296.347
-298.653
-302.373
-307.085
-312.078
-317.324
-322.666
-327.223
-330.542
-332.558
-334.258
-335.715
-337.039
-338.098
-338.483
-145.465
-146.652
-149.926
-155.182
-160.83
-168.98
-177.462
-187.344
-198.394
-210.164
-222.661
-235.868
-249.491
-263.315
-277.185
-290.812
-303.948
-316.318
-327.67
-337.764
-346.351
-353.238
-358.25
-361.222
-362.085
-360.971
-358.033
-353.354
-347.193
-340.027
-332.4
-324.943
-318.202
-312.713
-309.026
-307.396
-307.835
-310.196
-313.662
-318.015
-322.942
-327.25
-329.937
-331.112
-331.439
-332.025
-332.894
-334.096
-335.08
-335.447
-146.427
-149.212
-153.142
-159.248
-165.72
-174.889
-184.427
-195.623
-207.964
-221.49
-235.878
-251.069
-266.945
-283.288
-299.746
-316.058
-331.926
-346.985
-360.894
-373.373
-384.117
-392.825
-399.258
-403.216
-404.534
-403.126
-399.011
-392.428
-383.846
-373.628
-362.285
-350.471
-339.113
-329.277
-321.657
-316.732
-314.692
-315.475
-318.593
-323.523
-328.46
-331.692
-332.909
-332.656
-332.202
-331.821
-332.132
-332.868
-333.528
-333.908
-143.732
-148.412
-153.088
-159.919
-167.479
-177.693
-188.087
-200.769
-214.486
-229.478
-245.803
-263.236
-281.465
-300.386
-319.725
-339.102
-358.144
-376.436
-393.543
-409.061
-422.59
-433.736
-442.202
-447.646
-449.764
-448.481
-443.865
-436.007
-425.02
-411.369
-395.703
-378.973
-362.276
-346.653
-333.469
-323.984
-318.538
-317.678
-321.136
-327.006
-332.434
-335.506
-336.34
-335.802
-334.635
-333.498
-332.597
-332.057
-331.935
-332.204
-137.904
-144.653
-149.81
-157.684
-166.168
-177.018
-188.594
-202.241
-217.404
-234.018
-252.082
-271.542
-292.291
-313.984
-336.36
-359.102
-381.749
-403.795
-424.719
-443.974
-461.025
-475.419
-486.722
-494.551
-498.541
-498.316
-493.696
-484.651
-471.486
-454.632
-434.711
-412.452
-388.887
-365.808
-345.412
-329.1
-318.337
-314.523
-317.987
-326.003
-333.4
-337.716
-339.245
-338.669
-336.829
-334.374
-332.116
-330.352
-329.484
-329.331
-129.603
-137.98
-143.826
-152.543
-161.86
-173.06
-185.729
-200.471
-216.561
-234.617
-254.489
-275.99
-299.051
-323.506
-349.084
-375.394
-401.961
-428.232
-453.591
-477.352
-498.854
-517.46
-532.594
-543.726
-550.256
-551.725
-547.994
-539.09
-524.675
-504.961
-480.46
-452.106
-421.344
-389.704
-359.329
-332.848
-313.165
-304.246
-307.574
-318.38
-329.585
-335.99
-338.556
-338.604
-336.368
-333.196
-330.093
-327.433
-325.804
-324.986
-119.576
-129.536
-135.442
-144.85
-154.762
-166.283
-179.551
-194.981
-212.144
-231.417
-252.66
-276.037
-301.417
-328.57
-357.288
-387.264
-418.003
-448.892
-479.217
-508.2
-535.025
-558.849
-578.863
-594.373
-604.832
-609.564
-608.065
-599.915
-584.89
-563.069
-534.9
-501.137
-462.538
-420.395
-377.867
-338.183
-306.423
-289.717
-289.566
-302.6
-318.092
-329.437
-334.293
-336.023
-335.345
-332.893
-329.462
-326.062
-323.696
-322.081
-108.459
-119.565
-125.427
-135.384
-145.37
-157.37
-170.752
-186.398
-204.158
-224.343
-246.91
-271.83
-299.154
-328.861
-360.655
-394.28
-429.278
-465.048
-500.801
-535.625
-568.563
-598.612
-624.749
-646.092
-661.758
-670.695
-672.39
-666.439
-652.605
-630.478
-599.701
-560.459
-513.952
-462.241
-406.869
-351.212
-303.412
-274.855
-267.87
-279.995
-300.001
-318.899
-332.183
-338.637
-339.842
-337.475
-333.589
-329.446
-326.165
-323.899
-98.1228
-108.183
-115.221
-124.692
-134.223
-146.248
-159.73
-175.437
-193.253
-213.878
-237.141
-263.271
-292.304
-324.231
-358.86
-396.003
-435.249
-476.02
-517.475
-558.607
-598.356
-635.559
-669.067
-697.588
-719.821
-734.822
-741.625
-739.611
-728.123
-706.828
-675.053
-632.808
-580.878
-519.844
-449.538
-375.153
-313.546
-273.709
-258.318
-262.126
-285.835
-311.946
-331.386
-342.465
-346.238
-344.652
-340.607
-335.943
-332.502
-330.65
-88.8733
-96.7428
-104.344
-113.513
-122.78
-134.205
-147.323
-162.72
-180.287
-200.744
-224.364
-251.141
-281.264
-314.874
-351.873
-392.255
-435.625
-481.394
-528.725
-576.536
-623.597
-668.769
-710.7
-747.73
-778.223
-800.816
-814.114
-817.446
-810.226
-791.798
-762.486
-720.755
-664.175
-592.402
-508.857
-424.095
-347.714
-295.574
-268.136
-267.909
-286.753
-311.058
-330.797
-342.617
-347.029
-345.925
-342.685
-338.977
-336.635
-335.718
-85.1581
-85.5882
-93.4889
-102.022
-111.05
-121.966
-134.422
-149.046
-166.132
-186.042
-209.3
-236.158
-266.784
-301.409
-340.137
-383.134
-430.3
-480.984
-534.192
-588.886
-643.648
-697.45
-748.74
-795.418
-835.54
-867.513
-889.376
-900.508
-899.933
-886.267
-859.359
-820.487
-757.374
-679.106
-589
-501.319
-417.512
-353.955
-318.095
-304.487
-308.928
-321.166
-333.153
-341.03
-343.585
-341.903
-339.738
-337.787
-337.078
-337.403
-102.17
-78.5561
-84.2665
-91.0952
-99.8524
-110.471
-122.242
-135.964
-152.14
-171.244
-193.991
-220.312
-250.755
-285.8
-325.667
-370.492
-420.633
-475.663
-534.259
-595.682
-658.317
-721.386
-782.443
-838.84
-889.332
-932.547
-964.639
-985.337
-993.563
-986.919
-961.005
-923.587
-863.213
-780.476
-693.84
-600.1
-520.422
-456.557
-408.163
-376.581
-359.442
-352.242
-350.109
-348.002
-343.959
-339.767
-336.591
-335.493
-335.971
-337.147
-84.0627
-67.778
-73.9848
-81.1189
-90.3426
-100.583
-111.956
-125.085
-140.602
-159.232
-180.723
-206.116
-236.663
-272.762
-314.135
-361.157
-414.598
-474.711
-540.733
-610.808
-684.124
-758
-830.327
-898.624
-960.959
-1014.56
-1058.56
-1090.45
-1109.22
-1109.88
-1090.46
-1034.32
-962.709
-879.414
-787.094
-697.764
-618.747
-550.312
-495.228
-452.955
-421.856
-398.91
-380.468
-364.484
-350.886
-340.558
-335.031
-334.7
-336.154
-337.429
-70.8831
-67.3757
-70.9873
-77.3014
-85.9792
-95.479
-106.887
-120.528
-136.513
-156.258
-179.63
-207.718
-241.518
-281.403
-327.39
-380.466
-441.486
-510.452
-586.215
-666.504
-750.385
-836.031
-920.294
-999.634
-1071.52
-1133.79
-1182.32
-1214.08
-1224.77
-1209.69
-1165.84
-1104.02
-1027.41
-942.929
-853.068
-767.483
-689.945
-623.109
-565.355
-516.782
-476.088
-441.899
-412.681
-387.332
-365.723
-348.92
-339.278
-336.483
-338.391
-339.985
-62.1225
-65.9359
-70.4236
-76.8419
-84.7099
-94.0614
-105.904
-120.629
-138.838
-161.647
-189.289
-222.132
-260.62
-306.498
-360.851
-424.192
-496.265
-575.967
-662.774
-755.907
-853.369
-952.016
-1046.57
-1134.51
-1211.44
-1275.52
-1320.17
-1340.66
-1330.79
-1298.18
-1245.29
-1177.41
-1097.82
-1013.06
-928.244
-846.202
-768.153
-696.333
-632.219
-575.199
-525.471
-481.981
-444.373
-412.187
-385.096
-363.459
-348.685
-341.788
-342.638
-345.069
-55.0387
-61.4442
-67.4429
-74.3686
-82.2485
-92.4262
-105.524
-121.937
-142.829
-168.445
-199.724
-237.55
-282.777
-337.297
-401.815
-476.065
-560.295
-655.026
-759.445
-870.724
-983.98
-1093.05
-1195.46
-1288.96
-1371.25
-1431.62
-1463.62
-1464
-1440.27
-1395.36
-1334.72
-1260.35
-1179.65
-1093.35
-1006.11
-919.314
-837.058
-759.588
-688.594
-624.329
-566.893
-516.454
-472.723
-435.693
-405.094
-380.611
-362.443
-351.6
-348.406
-353.205
-48.8043
-54.8827
-61.3369
-68.6656
-77.1492
-88.5541
-102.801
-120.661
-143.476
-171.954
-207.594
-251.292
-304.201
-367.312
-442.103
-529.952
-631.99
-748.181
-874.312
-1004.22
-1131.04
-1251.16
-1362.82
-1464.73
-1542.93
-1587.6
-1600.01
-1585.8
-1548.6
-1493.03
-1423.1
-1343.04
-1256.14
-1165.1
-1072.55
-981.531
-893.461
-810.409
-733.064
-662.445
-599.065
-543.211
-495.146
-454.808
-421.975
-396.072
-376.539
-363.473
-358.457
-364.855
-41.1229
-46.1498
-52.4051
-60.0515
-69.3258
-81.0532
-95.7194
-114.826
-139.573
-171.578
-212.277
-262.099
-322.152
-394.426
-482.633
-589.982
-716.313
-856.764
-1004.31
-1151.65
-1293.87
-1427.97
-1549.56
-1647.17
-1704.78
-1729.27
-1724.71
-1695.29
-1644.9
-1578.98
-1500.47
-1412.43
-1318.39
-1221.41
-1123.36
-1026.93
-933.777
-845.257
-762.72
-687.077
-619.169
-559.643
-508.669
-466.362
-432.397
-406.055
-386.577
-373.758
-369.137
-372.086
-31.3014
-35.9887
-41.6155
-48.5775
-57.6696
-68.8993
-83.5014
-103.893
-130.898
-166.686
-211.948
-267.313
-335.915
-421.623
-529.737
-661.948
-814.471
-979.654
-1148.39
-1315.47
-1476
-1620.35
-1734.31
-1806.06
-1843.83
-1849.07
-1828.18
-1784.3
-1722.35
-1645.33
-1557.77
-1461.95
-1361.23
-1258.36
-1155.13
-1053.76
-955.817
-862.921
-776.11
-696.696
-625.632
-563.588
-510.891
-467.531