/*--------------------------------*- C++ -*----------------------------------*\
| =========                 |                                                 |
| \\      /  F ield         | OpenFOAM: The Open Source CFD Toolbox           |
|  \\    /   O peration     | Version:  v1912                                 |
|   \\  /    A nd           | Website:  www.openfoam.com                      |
|    \\/     M anipulation  |                                                 |
\*---------------------------------------------------------------------------*/
FoamFile
{
    version     2.0;
    format      ascii;
    class       surfaceScalarField;
    location    "0.18";
    object      phi;
}
// * * * * * * * * * * * * * * * * * * * * * * * * * * * * * * * * * * * * * //

dimensions      [0 3 -1 0 0 0 0];
oriented        oriented;


internalField   nonuniform List<scalar> 
13060
(
0.00553543
0.988677
-0.994212
0.00683683
0.946639
-0.947941
0.0075597
0.901268
-0.901991
0.00811531
0.858198
-0.858754
0.00836978
0.818477
-0.818731
0.00853383
0.780694
-0.780858
0.00836408
0.74461
-0.744441
0.00822444
0.710263
-0.710123
0.00806303
0.677081
-0.676919
0.0076205
0.645759
-0.645316
0.00708908
0.615618
-0.615086
0.00672794
0.586465
-0.586104
0.00658067
0.558645
-0.558498
0.0063995
0.532104
-0.531922
0.00628045
0.506523
-0.506404
0.006232
0.482094
-0.482045
0.00619953
0.458622
-0.458589
0.00618654
0.436108
-0.436095
0.00617266
0.414594
-0.41458
0.006149
0.393952
-0.393928
0.00611745
0.374268
-0.374236
0.00608915
0.35548
-0.355452
0.00613248
0.337444
-0.337487
0.00637683
0.320139
-0.320383
0.00657284
0.30376
-0.303956
0.0065496
0.288355
-0.288332
0.00642787
0.273458
-0.273337
0.00618563
0.259258
-0.259015
0.00583446
0.245859
-0.245508
0.00548257
0.233147
-0.232795
0.00517218
0.221076
-0.220765
0.00483604
0.209665
-0.209329
0.00445321
0.198888
-0.198505
0.00402785
0.188675
-0.18825
0.00358819
0.179021
-0.178581
0.00309552
0.169978
-0.169486
0.0025407
0.161515
-0.16096
0.0019782
0.153575
-0.153013
0.00140311
0.146122
-0.145547
0.00080998
0.139139
-0.138546
0.000224326
0.132604
-0.132019
-0.00038723
0.126516
-0.125905
-0.00101542
0.120791
-0.120163
-0.00160145
0.115465
-0.114879
-0.00214982
0.110503
-0.109955
-0.00260548
0.105951
-0.105496
-0.00311663
0.101326
-0.100815
-0.0032338
0.097584
-0.0974668
-0.0023898
0.0888412
-0.0896852
0.0595694
-0.0619592
0.00556715
0.98311
0.00620903
0.945997
0.00611207
0.901365
0.00525318
0.859057
0.00469047
0.81904
0.00413404
0.78125
0.00352453
0.74522
0.0030558
0.710732
0.00256299
0.677573
0.00249698
0.645825
0.00265918
0.615456
0.00262282
0.586502
0.00246676
0.558802
0.00233718
0.532233
0.00219601
0.506664
0.00204024
0.482249
0.00189138
0.458771
0.00176313
0.436236
0.00164406
0.414713
0.00153219
0.394064
0.00141707
0.374383
0.00128549
0.355612
0.00101896
0.33771
0.000511032
0.320647
-2.01274e-05
0.304291
-0.00019732
0.288532
-0.000321709
0.273583
-0.000478924
0.259415
-0.000548747
0.245929
-0.000652461
0.233251
-0.000892026
0.221315
-0.00116743
0.20994
-0.00143498
0.199156
-0.00172059
0.188961
-0.00206278
0.179363
-0.00241642
0.170332
-0.00275457
0.161853
-0.00311316
0.153934
-0.0034829
0.146492
-0.00384461
0.139501
-0.00419643
0.132956
-0.00449961
0.12682
-0.00474721
0.121039
-0.00493502
0.115653
-0.00504936
0.110618
-0.00505857
0.105961
-0.0050544
0.101322
-0.00446763
0.0969972
-0.00303643
0.08741
0.056533
0.00474121
0.978369
0.00512389
0.945615
0.00465681
0.901832
0.00362968
0.860084
0.00262679
0.820042
0.00180266
0.782074
0.00101536
0.746007
0.000205319
0.711542
-0.00076933
0.678548
-0.00186167
0.646917
-0.00288966
0.616484
-0.00359954
0.587212
-0.00410486
0.559307
-0.00464776
0.532776
-0.00506866
0.507085
-0.00539582
0.482577
-0.00568042
0.459055
-0.00593747
0.436493
-0.0061673
0.414943
-0.00638547
0.394282
-0.00658446
0.374582
-0.00673715
0.355764
-0.00672265
0.337696
-0.006406
0.32033
-0.00619349
0.304079
-0.00633361
0.288672
-0.00648041
0.27373
-0.00662699
0.259562
-0.0068981
0.2462
-0.00712669
0.23348
-0.00724352
0.221432
-0.00736472
0.210062
-0.00752303
0.199314
-0.00768934
0.189127
-0.00782159
0.179495
-0.00796255
0.170473
-0.00813074
0.162021
-0.00827304
0.154076
-0.00838921
0.146608
-0.00848157
0.139593
-0.00852689
0.133001
-0.00851434
0.126807
-0.00843357
0.120958
-0.00826527
0.115485
-0.00799635
0.110349
-0.00761861
0.105583
-0.00714771
0.100851
-0.00596787
0.0958174
-0.00379232
0.0852345
0.0527407
0.00421466
0.974154
0.00322191
0.946607
0.00175694
0.903297
0.000156622
0.861684
-0.00137149
0.821571
-0.00287964
0.783582
-0.00418969
0.747317
-0.00527807
0.71263
-0.00605719
0.679327
-0.00654254
0.647403
-0.00702644
0.616967
-0.00766525
0.58785
-0.00822033
0.559862
-0.00863112
0.533187
-0.00910223
0.507556
-0.0095429
0.483017
-0.00994561
0.459458
-0.0103079
0.436855
-0.0106345
0.415269
-0.0109256
0.394573
-0.0111884
0.374845
-0.0114475
0.356023
-0.0118516
0.3381
-0.012467
0.320946
-0.0129398
0.304552
-0.0130867
0.288819
-0.0131951
0.273838
-0.0132907
0.259657
-0.013269
0.246178
-0.0132608
0.233472
-0.0133415
0.221513
-0.0134168
0.210137
-0.0134472
0.199344
-0.0134588
0.189139
-0.0134946
0.179531
-0.0134943
0.170473
-0.0134299
0.161957
-0.0133429
0.153989
-0.013218
0.146483
-0.0130322
0.139408
-0.0127778
0.132747
-0.0124334
0.126463
-0.0119921
0.120517
-0.0114517
0.114944
-0.0107909
0.109688
-0.00992652
0.104718
-0.00897452
0.0998989
-0.00737775
0.0942206
-0.00453559
0.0823923
0.0482051
0.00271874
0.971435
0.00163049
0.947696
-0.000332699
0.90526
-0.00177618
0.863128
-0.0036299
0.823424
-0.0052696
0.785222
-0.0068023
0.74885
-0.00839219
0.71422
-0.00986412
0.680799
-0.0115964
0.649135
-0.0130073
0.618378
-0.0140746
0.588918
-0.0150678
0.560855
-0.0160038
0.534123
-0.0167318
0.508284
-0.017342
0.483627
-0.0178863
0.460002
-0.0183702
0.437339
-0.0187979
0.415697
-0.0191699
0.394945
-0.0194854
0.37516
-0.0197082
0.356246
-0.0196737
0.338065
-0.0193574
0.320629
-0.0191574
0.304352
-0.0192703
0.288932
-0.019388
0.273956
-0.0194509
0.25972
-0.0195996
0.246327
-0.019698
0.23357
-0.0196384
0.221453
-0.0195337
0.210032
-0.0194382
0.199249
-0.0193136
0.189014
-0.0191064
0.179324
-0.0188721
0.170238
-0.0186241
0.161709
-0.0183052
0.15367
-0.0179124
0.14609
-0.0174459
0.138941
-0.0168899
0.132191
-0.0162427
0.125815
-0.0154966
0.119771
-0.0146244
0.114072
-0.0136324
0.108696
-0.0124923
0.103578
-0.0111605
0.0985671
-0.0090583
0.0921184
-0.00536304
0.0786971
0.042842
0.00169442
0.969741
-0.000580917
0.949971
-0.00347135
0.90815
-0.0059114
0.865568
-0.00820517
0.825718
-0.0104316
0.787448
-0.0124479
0.750866
-0.013954
0.715726
-0.0153177
0.682163
-0.0162815
0.650099
-0.017216
0.619313
-0.0182842
0.589986
-0.0191607
0.561732
-0.0198948
0.534857
-0.0206647
0.509054
-0.0213711
0.484334
-0.0220123
0.460644
-0.0225904
0.437917
-0.0231027
0.416209
-0.0235545
0.395397
-0.0239541
0.37556
-0.0243392
0.356631
-0.0248851
0.338611
-0.0256254
0.32137
-0.0260996
0.304826
-0.0261542
0.288987
-0.026157
0.273959
-0.0261608
0.259724
-0.0259881
0.246154
-0.0257809
0.233363
-0.0256568
0.221329
-0.0254927
0.209868
-0.0252287
0.198985
-0.0249051
0.188691
-0.0245776
0.178996
-0.0241779
0.169839
-0.0236751
0.161206
-0.0231062
0.153102
-0.0224602
0.145444
-0.0217203
0.138201
-0.0208829
0.131354
-0.019929
0.124861
-0.0188571
0.118699
-0.0176762
0.112891
-0.016381
0.107401
-0.0150379
0.102235
-0.0132518
0.0967811
-0.0106383
0.0895049
-0.00613776
0.0741965
0.0367043
0.000735998
0.969005
-0.00244067
0.953148
-0.00549163
0.911201
-0.0080793
0.868156
-0.010657
0.828296
-0.0129397
0.789731
-0.0150516
0.752978
-0.0173607
0.718035
-0.0195808
0.684383
-0.0216741
0.652192
-0.0235016
0.62114
-0.0249861
0.59147
-0.0264243
0.56317
-0.0277549
0.536188
-0.0288412
0.51014
-0.0297672
0.48526
-0.0305776
0.461454
-0.0312891
0.438629
-0.0318974
0.416817
-0.0324058
0.395906
-0.0328074
0.375961
-0.0330563
0.35688
-0.0329661
0.338521
-0.0325735
0.320977
-0.0323353
0.304588
-0.0324161
0.289067
-0.0324318
0.273974
-0.0323213
0.259613
-0.0322723
0.246105
-0.03216
0.23325
-0.0318541
0.221023
-0.0314563
0.20947
-0.0310348
0.198563
-0.0305534
0.188209
-0.0299474
0.17839
-0.0292778
0.169169
-0.0285682
0.160497
-0.0277633
0.152297
-0.0268569
0.144538
-0.0258531
0.137197
-0.0247452
0.130246
-0.0235431
0.123659
-0.0222503
0.117406
-0.0208406
0.111481
-0.0193098
0.10587
-0.0177213
0.100647
-0.0155368
0.0945966
-0.0123313
0.0862994
-0.00691992
0.0687851
0.0297844
-0.000159143
0.969164
-0.00455151
0.95754
-0.00852623
0.915176
-0.0119771
0.871606
-0.0151844
0.831503
-0.0181316
0.792678
-0.0207728
0.755619
-0.0228364
0.720099
-0.0246172
0.686164
-0.0261056
0.65368
-0.0275187
0.622554
-0.0289904
0.592942
-0.0301997
0.564379
-0.0312673
0.537255
-0.0323627
0.511236
-0.0333715
0.486269
-0.034275
0.462357
-0.0350718
0.439425
-0.0357684
0.417514
-0.0363717
0.396509
-0.0368896
0.376479
-0.0373777
0.357368
-0.0380397
0.339183
-0.0388616
0.321799
-0.0393142
0.30504
-0.0392571
0.28901
-0.0391066
0.273824
-0.0389533
0.25946
-0.038586
0.245738
-0.0381077
0.232772
-0.0376726
0.220588
-0.0371914
0.208989
-0.0365743
0.197946
-0.0358526
0.187488
-0.0351082
0.177646
-0.0342762
0.168337
-0.0333163
0.159537
-0.032266
0.151246
-0.0311247
0.143397
-0.0298851
0.135958
-0.0285492
0.12891
-0.027103
0.122213
-0.0255491
0.115852
-0.0239271
0.109859
-0.0223086
0.104251
-0.0203278
0.098666
-0.017777
0.0920458
-0.013925
0.0824473
-0.00759638
0.0624565
0.022188
-0.000859936
0.970024
-0.00580828
0.962488
-0.0101064
0.919474
-0.0138754
0.875375
-0.0173045
0.834932
-0.0202409
0.795615
-0.023183
0.758561
-0.0259874
0.722903
-0.0287858
0.688962
-0.0313532
0.656248
-0.0337145
0.624915
-0.0357003
0.594928
-0.0376607
0.56634
-0.0393933
0.538988
-0.0408358
0.512678
-0.0421015
0.487534
-0.0432073
0.463463
-0.0441607
0.440379
-0.0449648
0.418318
-0.0456242
0.397168
-0.046123
0.376978
-0.0463991
0.357644
-0.0462567
0.339041
-0.0457517
0.321294
-0.0454082
0.304697
-0.0453774
0.28898
-0.0452498
0.273696
-0.0449098
0.25912
-0.0445951
0.245423
-0.044232
0.232409
-0.0436372
0.219993
-0.0428814
0.208234
-0.042077
0.197142
-0.041209
0.18662
-0.0401888
0.176626
-0.0390772
0.167226
-0.0379165
0.158376
-0.036661
0.149991
-0.0353039
0.14204
-0.0338498
0.134504
-0.032297
0.127357
-0.0306705
0.120587
-0.0289962
0.114178
-0.0272412
0.108104
-0.0254622
0.102473
-0.0230798
0.0962836
-0.0200601
0.0890261
-0.0152765
0.0776637
-0.00792023
0.0551003
0.0142677
-0.00185071
0.971875
-0.00768796
0.968326
-0.0128486
0.924635
-0.0176146
0.880141
-0.0216323
0.83895
-0.0253078
0.79929
-0.0283851
0.761639
-0.0310629
0.725581
-0.0333664
0.691266
-0.0352833
0.658165
-0.0372196
0.626851
-0.0390531
0.596761
-0.0406527
0.567939
-0.0421102
0.540445
-0.043556
0.514124
-0.0448919
0.48887
-0.0460951
0.464666
-0.0471512
0.441435
-0.0480628
0.41923
-0.0488395
0.397945
-0.0494961
0.377635
-0.0500913
0.35824
-0.0508312
0.339781
-0.0517045
0.322167
-0.0521464
0.305139
-0.0519614
0.288795
-0.0516088
0.273344
-0.0512697
0.258781
-0.050687
0.244841
-0.0498961
0.231618
-0.0491086
0.219206
-0.0482886
0.207414
-0.0473121
0.196165
-0.0461879
0.185496
-0.0450354
0.175473
-0.0438054
0.165996
-0.0424425
0.157013
-0.0409823
0.148531
-0.0394354
0.140493
-0.0378054
0.132874
-0.0361004
0.125652
-0.0343041
0.11879
-0.032414
0.112288
-0.0306288
0.106319
-0.0285047
0.100348
-0.0258724
0.0936513
-0.0221066
0.0852602
-0.0158355
0.0713927
-0.00648336
0.0457481
0.00778438
-0.00236303
0.974238
-0.00851114
0.974474
-0.013765
0.929889
-0.018478
0.884854
-0.022648
0.84312
-0.0264439
0.803086
-0.0299243
0.765119
-0.033464
0.729121
-0.0367007
0.694502
-0.0399213
0.661385
-0.0426807
0.62961
-0.0452595
0.59934
-0.0477353
0.570415
-0.0499298
0.54264
-0.0518155
0.51601
-0.0534708
0.490526
-0.0549155
0.466111
-0.0561666
0.442686
-0.057226
0.420289
-0.0580897
0.398809
-0.0587385
0.378283
-0.0591022
0.358603
-0.058995
0.339674
-0.058417
0.321589
-0.0579166
0.304638
-0.0577426
0.288621
-0.0574745
0.273075
-0.0568906
0.258197
-0.0562729
0.244223
-0.0556447
0.23099
-0.0547784
0.218339
-0.0536803
0.206315
-0.0525034
0.194988
-0.0512859
0.184278
-0.049912
0.174099
-0.0484237
0.164507
-0.0468876
0.155477
-0.045273
0.146916
-0.0435758
0.138795
-0.0417996
0.131097
-0.0399409
0.123794
-0.0380299
0.116879
-0.0361649
0.110423
-0.0342059
0.10436
-0.0316663
0.0978089
-0.0285186
0.0905036
-0.0236589
0.0804005
-0.0154868
0.0632206
-0.00425475
0.034516
0.00352963
-0.00380062
0.978038
-0.0103055
0.980979
-0.0159007
0.935484
-0.0213348
0.890288
-0.0260611
0.847846
-0.0302984
0.807324
-0.0341531
0.768974
-0.0373116
0.732279
-0.0400668
0.697257
-0.0425983
0.663917
-0.0450995
0.632112
-0.047482
0.601723
-0.04952
0.572453
-0.0514239
0.544544
-0.053309
0.517895
-0.0550664
0.492283
-0.0566557
0.467701
-0.0580637
0.444094
-0.0592792
0.421505
-0.060308
0.399838
-0.0611681
0.379144
-0.0619157
0.359351
-0.0627304
0.340488
-0.0636636
0.322523
-0.0641801
0.305155
-0.0639377
0.288378
-0.0633966
0.272534
-0.062885
0.257685
-0.0621309
0.243469
-0.0610582
0.229917
-0.0599238
0.217205
-0.0587912
0.205183
-0.0575191
0.193716
-0.0560591
0.182818
-0.0545644
0.172604
-0.0530235
0.162966
-0.0513614
0.153815
-0.0496065
0.145161
-0.0477732
0.136962
-0.0458736
0.129198
-0.0439258
0.121846
-0.0419593
0.114913
-0.0400454
0.108509
-0.0376593
0.101974
-0.0348021
0.0949517
-0.030739
0.0864405
-0.0244244
0.0740859
-0.0149252
0.0537213
-0.00262243
0.0222133
0.000907199
-0.00354905
0.981587
-0.0105365
0.987966
-0.0160517
0.940999
-0.0210694
0.895306
-0.0256316
0.852408
-0.0300441
0.811736
-0.0341885
0.773118
-0.0383198
0.73641
-0.0423744
0.701312
-0.0459959
0.667538
-0.0492893
0.635405
-0.0524253
0.604859
-0.0555542
0.575582
-0.0583589
0.547348
-0.0608004
0.520337
-0.0629733
0.494456
-0.0648824
0.46961
-0.0665641
0.445776
-0.068006
0.422947
-0.0691992
0.401031
-0.0701132
0.380058
-0.0706857
0.359923
-0.0707505
0.340553
-0.0702222
0.321994
-0.0696075
0.30454
-0.069301
0.288072
-0.0689683
0.272201
-0.0682229
0.25694
-0.067328
0.242574
-0.0664636
0.229053
-0.0653995
0.216141
-0.0640368
0.20382
-0.0625415
0.192221
-0.0610466
0.181323
-0.0594217
0.17098
-0.0576634
0.161208
-0.0558588
0.15201
-0.0539951
0.143298
-0.0520745
0.135042
-0.0500957
0.127219
-0.0480775
0.119828
-0.0461919
0.113027
-0.0440341
0.106351
-0.0414194
0.0993594
-0.0380532
0.0915854
-0.0330527
0.08144
-0.0247797
0.0658129
-0.0124325
0.0413741
-0.0015461
0.0113269
-0.0006389
-0.00385606
0.985443
-0.0108691
0.994979
-0.0170822
0.947212
-0.0228805
0.901104
-0.0279236
0.857452
-0.0326153
0.816428
-0.0368254
0.777328
-0.0404413
0.740026
-0.0436638
0.704535
-0.0469315
0.670806
-0.0502092
0.638683
-0.0531499
0.607799
-0.0556678
0.5781
-0.0582051
0.549886
-0.0607053
0.522837
-0.0630524
0.496803
-0.0651993
0.471757
-0.0671259
0.447702
-0.0688139
0.424635
-0.0702603
0.402477
-0.0714724
0.38127
-0.0724903
0.360941
-0.0734663
0.341529
-0.0745471
0.323075
-0.0752786
0.305271
-0.0751636
0.287957
-0.0745258
0.271564
-0.073896
0.25631
-0.0730782
0.241756
-0.0718404
0.227815
-0.0704166
0.214717
-0.0690104
0.202414
-0.0675297
0.19074
-0.0658341
0.179628
-0.0640801
0.169226
-0.062315
0.159443
-0.0604609
0.150156
-0.0585339
0.141371
-0.0565427
0.13305
-0.0545042
0.12518
-0.0526189
0.117942
-0.0505816
0.11099
-0.0481226
0.103892
-0.0451353
0.0963721
-0.0410026
0.0874527
-0.0343199
0.0747573
-0.023577
0.05507
-0.00834899
0.0261461
-0.00106168
0.00403959
-0.00170058
-0.00337918
0.988823
-0.00968305
1.00128
-0.0155275
0.953057
-0.0209144
0.906491
-0.0257704
0.862307
-0.0304447
0.821102
-0.0350506
0.781934
-0.0397412
0.744717
-0.0442795
0.709073
-0.0485194
0.675046
-0.0523091
0.642472
-0.0562195
0.61171
-0.0601205
0.582001
-0.0636648
0.55343
-0.0668465
0.526019
-0.0697511
0.499707
-0.0723687
0.474374
-0.0747066
0.45004
-0.0767495
0.426677
-0.0784921
0.40422
-0.0798967
0.382674
-0.080906
0.361951
-0.0813863
0.342009
-0.0811396
0.322828
-0.0805595
0.304691
-0.0802152
0.287612
-0.079938
0.271287
-0.0791927
0.255565
-0.0781135
0.240677
-0.0770451
0.226746
-0.075864
0.213536
-0.0743541
0.200904
-0.0726126
0.188999
-0.0708929
0.177908
-0.069104
0.167437
-0.0671767
0.157516
-0.0652027
0.148182
-0.0631932
0.139361
-0.0611692
0.131026
-0.059256
0.123267
-0.057291
0.115977
-0.0549799
0.108679
-0.0523442
0.101256
-0.0488344
0.0928624
-0.0431168
0.0817351
-0.0332792
0.0649197
-0.0181669
0.0399577
-0.00434451
0.0123237
-0.000333556
2.86324e-05
-0.00203413
-0.00291273
0.991735
-0.00929621
1.00767
-0.0150368
0.958797
-0.0209527
0.912407
-0.0260448
0.8674
-0.0309258
0.825983
-0.0352658
0.786274
-0.039419
0.74887
-0.043381
0.713035
-0.0473203
0.678985
-0.0514066
0.646559
-0.0549606
0.615264
-0.0582445
0.585285
-0.061613
0.556798
-0.0649251
0.529331
-0.0680713
0.502854
-0.0710335
0.477336
-0.0737373
0.452744
-0.0761622
0.429102
-0.0782945
0.406352
-0.0801204
0.3845
-0.0816622
0.363492
-0.0830271
0.343374
-0.0844128
0.324214
-0.085564
0.305843
-0.0858474
0.287896
-0.0853461
0.270785
-0.0847069
0.254926
-0.0839379
0.239908
-0.0826964
0.225505
-0.0810789
0.211919
-0.0794117
0.199237
-0.0777645
0.187351
-0.0759164
0.17606
-0.0739552
0.165476
-0.0720151
0.155576
-0.0700389
0.146206
-0.0680352
0.137357
-0.0660697
0.129061
-0.0641395
0.121337
-0.0619592
0.113797
-0.0594887
0.106208
-0.0562885
0.0980561
-0.051236
0.0878099
-0.0424824
0.0729816
-0.0285502
0.0509874
-0.011009
0.0224164
-0.0022272
0.00354194
-3.1585e-05
-0.00216698
-0.00206572
-0.00151841
0.993254
-0.00725764
1.01341
-0.0121522
0.963692
-0.0170819
0.917337
-0.02185
0.872168
-0.0267824
0.830916
-0.0318805
0.791372
-0.036854
0.753843
-0.0418581
0.718039
-0.0465691
0.683696
-0.0510884
0.651078
-0.0558936
0.620069
-0.0607265
0.590118
-0.0651076
0.561179
-0.0692364
0.533459
-0.0731333
0.506751
-0.0767361
0.480939
-0.0800452
0.456053
-0.083007
0.432064
-0.0856123
0.408958
-0.0878274
0.386715
-0.0896116
0.365276
-0.0908504
0.344613
-0.0912762
0.32464
-0.0910244
0.305591
-0.0908224
0.287694
-0.0907486
0.270711
-0.0902302
0.254407
-0.0891437
0.238822
-0.0879157
0.224277
-0.0866465
0.210649
-0.0850919
0.197682
-0.08316
0.185419
-0.0811915
0.174091
-0.079243
0.163527
-0.0771909
0.153523
-0.075106
0.144121
-0.0730487
0.1353
-0.0710947
0.127107
-0.0690031
0.119245
-0.066616
0.11141
-0.0636217
0.103214
-0.0590705
0.0935049
-0.051192
0.0799313
-0.0380353
0.0598249
-0.0190665
0.0320187
-0.0050745
0.00842442
-0.000707363
-0.000825193
0.000187507
-0.00306185
-0.00187821
-8.62941e-05
0.99334
-0.00575467
1.01907
-0.0108201
0.968757
-0.015841
0.922358
-0.0206061
0.876933
-0.0252414
0.835551
-0.0296465
0.795777
-0.0340914
0.758288
-0.0385455
0.722493
-0.0433195
0.68847
-0.0480856
0.655844
-0.0524343
0.624418
-0.0566994
0.594383
-0.0610984
0.565578
-0.0654459
0.537807
-0.0696491
0.510954
-0.0736621
0.484952
-0.0774688
0.45986
-0.0809846
0.43558
-0.0841372
0.41211
-0.0869177
0.389496
-0.0893133
0.367672
-0.0913928
0.346692
-0.0933576
0.326605
-0.0952097
0.307443
-0.0962504
0.288735
-0.0962433
0.270704
-0.0957685
0.253932
-0.0951507
0.238204
-0.0940849
0.223211
-0.0924228
0.208987
-0.0904765
0.195736
-0.0885997
0.183543
-0.086602
0.172094
-0.0844062
0.161331
-0.0822389
0.151356
-0.0801577
0.14204
-0.07815
0.133292
-0.0760809
0.125038
-0.0737268
0.116891
-0.0708468
0.10853
-0.0667006
0.0990679
-0.0595017
0.0863061
-0.0468457
0.0672753
-0.0273498
0.040329
-0.00948953
0.0141584
-0.00215839
0.00109328
-2.75403e-05
-0.00295605
0.000225512
-0.0033149
-0.0016527
0.00151864
0.991821
-0.00186675
1.02246
-0.00578321
0.972674
-0.0100611
0.926636
-0.0144639
0.881336
-0.019548
0.840635
-0.0245017
0.800731
-0.0296039
0.763391
-0.0349832
0.727872
-0.0402098
0.693697
-0.0454715
0.661106
-0.051125
0.630071
-0.0568641
0.600122
-0.0622716
0.570986
-0.0675088
0.543044
-0.0725857
0.516031
-0.0774737
0.48984
-0.08209
0.464476
-0.0863664
0.439856
-0.0902477
0.415991
-0.0936772
0.392925
-0.0966224
0.370617
-0.098997
0.349067
-0.10059
0.328197
-0.101152
0.308005
-0.101359
0.288942
-0.101696
0.271041
-0.10167
0.253907
-0.100857
0.237391
-0.0995681
0.221922
-0.0981675
0.207587
-0.0966039
0.194172
-0.0945448
0.181484
-0.092233
0.169782
-0.0899777
0.159076
-0.0876889
0.149067
-0.0854833
0.139834
-0.0832404
0.131049
-0.080814
0.122611
-0.0779649
0.114042
-0.0740615
0.104626
-0.0674348
0.0924412
-0.0551725
0.0740438
-0.0353547
0.0474576
-0.0148147
0.0197889
-0.00419679
0.00354057
-0.000716428
-0.00238708
0.000212921
-0.0038854
0.000204051
-0.00330603
-0.00144865
0.00241187
0.989409
-5.00674e-05
1.02492
-0.00369768
0.976321
-0.00783115
0.930769
-0.0118071
0.885311
-0.0158514
0.844679
-0.0203252
0.805205
-0.0250054
0.768071
-0.029699
0.732566
-0.0349638
0.698962
-0.0402555
0.666397
-0.045405
0.635221
-0.0506176
0.605334
-0.0561139
0.576482
-0.0616743
0.548604
-0.0671845
0.521541
-0.0725787
0.495234
-0.077756
0.469653
-0.0826927
0.444793
-0.0872943
0.420593
-0.091457
0.397088
-0.0951805
0.374341
-0.0983941
0.352281
-0.101292
0.331095
-0.104078
0.310792
-0.1063
0.291163
-0.107322
0.272064
-0.107329
0.253914
-0.106986
0.237047
-0.106266
0.221202
-0.104824
0.206144
-0.102657
0.192006
-0.100352
0.179178
-0.0980483
0.167478
-0.0955121
0.15654
-0.0930243
0.14658
-0.0904439
0.137254
-0.087833
0.128439
-0.0849645
0.119743
-0.0811723
0.11025
-0.074891
0.0983451
-0.0630292
0.0805794
-0.0429164
0.0539309
-0.0203982
0.0249394
-0.00691532
0.00630598
-0.00209792
-0.00127683
-0.000616157
-0.00386884
-0.000132267
-0.00436929
1.8441e-05
-0.00345674
-0.00143021
0.00544899
0.98396
0.00388018
1.02649
0.00175571
0.978446
-0.00123353
0.933758
-0.00494517
0.889023
-0.00934243
0.849077
-0.0138717
0.809734
-0.0190157
0.773215
-0.0244624
0.738013
-0.0299035
0.704403
-0.035624
0.672118
-0.0419955
0.641592
-0.0485337
0.611873
-0.0549503
0.582899
-0.0613825
0.555037
-0.0677855
0.527944
-0.0740858
0.501535
-0.0802306
0.475798
-0.0861281
0.450691
-0.0916935
0.426158
-0.096837
0.402232
-0.101402
0.378906
-0.105374
0.356253
-0.108597
0.334317
-0.110616
0.312811
-0.111683
0.29223
-0.112725
0.273106
-0.113479
0.254668
-0.113379
0.236947
-0.112347
0.220171
-0.110811
0.204608
-0.109158
0.190353
-0.107014
0.177034
-0.104199
0.164663
-0.101391
0.153732
-0.0984557
0.143644
-0.0953684
0.134167
-0.0921332
0.125203
-0.0880814
0.115691
-0.0817905
0.103959
-0.0703076
0.0868622
-0.0498451
0.060117
-0.0257297
0.0298154
-0.0099222
0.00913196
-0.0036896
7.33891e-05
-0.00159297
-0.00337346
-0.000831825
-0.00462998
-0.000491058
-0.00471005
-0.000211058
-0.00373674
-0.00164126
0.00609723
0.977863
0.00522588
1.02736
0.00364115
0.980031
0.00116739
0.936232
-0.00189123
0.892082
-0.00522398
0.852409
-0.00903022
0.81354
-0.0132942
0.777479
-0.0179709
0.742689
-0.0231956
0.709628
-0.0288797
0.677802
-0.0344423
0.647155
-0.0403544
0.617785
-0.0468169
0.589361
-0.053516
0.561736
-0.0603314
0.534759
-0.067208
0.508411
-0.0740072
0.482597
-0.0806165
0.4573
-0.0869513
0.432493
-0.0929094
0.40819
-0.0984225
0.384419
-0.103375
0.361205
-0.107686
0.338628
-0.11174
0.316865
-0.115567
0.296056
-0.118114
0.275654
-0.119241
0.255795
-0.119498
0.237204
-0.119262
0.219935
-0.118392
0.203737
-0.116405
0.188367
-0.113643
0.174272
-0.110771
0.161791
-0.107474
0.150436
-0.103782
0.139951
-0.0999116
0.130297
-0.095157
0.120449
-0.0882528
0.108787
-0.0766634
0.0923696
-0.0560563
0.0662551
-0.0305602
0.0346209
-0.0123369
0.0115922
-0.00436387
0.00115889
-0.00140169
-0.0028888
-0.000346244
-0.0044289
-0.000127498
-0.00484873
-0.000189492
-0.00464806
-0.000174246
-0.00375199
-0.00181551
0.0092583
0.968605
0.0101456
1.02647
0.00949585
0.98068
0.00749178
0.938236
0.00531463
0.894259
0.00197163
0.855752
-0.00219251
0.817704
-0.00684235
0.782129
-0.0119029
0.74775
-0.0170976
0.714822
-0.0229527
0.683657
-0.0295906
0.653793
-0.036547
0.624741
-0.0436524
0.596467
-0.0510455
0.569129
-0.0586506
0.542364
-0.066371
0.516132
-0.0741041
0.49033
-0.0817557
0.464952
-0.0892284
0.439966
-0.0963807
0.415342
-0.103062
0.3911
-0.109088
0.367232
-0.114331
0.343871
-0.118536
0.321069
-0.121273
0.298794
-0.123337
0.277717
-0.125152
0.25761
-0.126341
0.238393
-0.126281
0.219875
-0.124955
0.202411
-0.123109
0.186521
-0.121009
0.172172
-0.118025
0.158807
-0.113986
0.146396
-0.109176
0.135142
-0.103445
0.124565
-0.0955807
0.112585
-0.0831418
0.0963479
-0.0614627
0.0706906
-0.0340671
0.0388595
-0.0132992
0.013853
-0.00256896
0.000861911
0.00216147
-0.00357154
0.00378242
-0.00450975
0.00380565
-0.00445213
0.00291573
-0.00395881
0.00161753
-0.00334985
0.000475982
-0.00261044
-0.00133953
0.0091317
0.959473
0.00931906
1.02629
0.0102321
0.979767
0.00913313
0.939335
0.00734685
0.896045
0.00517567
0.857924
0.00240596
0.820474
-0.000910965
0.785446
-0.00516066
0.752
-0.010277
0.719939
-0.0156304
0.68901
-0.02113
0.659292
-0.0273635
0.630975
-0.0343166
0.60342
-0.0417513
0.576564
-0.0496127
0.550226
-0.0578003
0.524319
-0.0661672
0.498697
-0.0745591
0.473343
-0.0828119
0.448219
-0.0907995
0.42333
-0.0984132
0.398714
-0.105515
0.374334
-0.111976
0.350332
-0.117848
0.326942
-0.123479
0.304424
-0.128088
0.282327
-0.131157
0.260679
-0.132724
0.23996
-0.13326
0.220411
-0.13319
0.20234
-0.132062
0.185393
-0.129278
0.169388
-0.125487
0.155017
-0.120729
0.141639
-0.114397
0.128809
-0.105397
0.115566
-0.0909776
0.0981655
-0.0667956
0.0721659
-0.0363476
0.0402425
-0.0114621
0.0139741
0.00257784
-0.00018696
0.00893266
-0.00549291
0.0109447
-0.00558355
0.0107466
-0.00431171
0.00927393
-0.00297943
0.00691308
-0.00159797
0.00412525
-0.000562013
0.00149974
1.50657e-05
0.000160209
0.0125872
0.946886
0.0143489
1.02453
0.015372
0.978744
0.0150539
0.939653
0.0136428
0.897456
0.0111826
0.860384
0.00830933
0.823347
0.00459939
0.789156
0.000531076
0.756068
-0.00396197
0.724432
-0.00947998
0.694528
-0.0159087
0.665721
-0.0227047
0.637771
-0.0299471
0.610662
-0.037753
0.584369
-0.0460932
0.558566
-0.0548651
0.533091
-0.0639685
0.507801
-0.0732756
0.48265
-0.0826612
0.457604
-0.0919356
0.432604
-0.100881
0.407659
-0.10939
0.382843
-0.117215
0.358157
-0.124015
0.333742
-0.129311
0.30972
-0.133221
0.286237
-0.136513
0.263971
-0.139127
0.242574
-0.140941
0.222225
-0.140969
0.202368
-0.139165
0.18359
-0.137038
0.167261
-0.133465
0.151443
-0.127214
0.135388
-0.117148
0.118743
-0.100433
0.0988501
-0.0723255
0.0700582
-0.0381697
0.0380101
-0.0098306
0.0119034
0.00664058
-0.00249706
0.0141582
-0.0077046
0.0158993
-0.00723397
0.0153593
-0.00504356
0.013633
-0.00258543
0.0111121
-0.000458529
0.0081014
0.00141273
0.00486687
0.00267253
0.00182363
0.0030583
0.00198384
0.010262
0.936624
0.0132829
1.0215
0.0139083
0.978119
0.0140532
0.939508
0.0139158
0.897594
0.0132367
0.861063
0.0118303
0.824754
0.0094308
0.791555
0.0063492
0.75915
0.00224182
0.728539
-0.00213023
0.6989
-0.00705329
0.670644
-0.0129616
0.643679
-0.0197609
0.617461
-0.0272481
0.591857
-0.0354924
0.56681
-0.0444305
0.542029
-0.0539227
0.517293
-0.0637944
0.492522
-0.0738143
0.467624
-0.0838265
0.442616
-0.093692
0.417525
-0.103203
0.392354
-0.112184
0.367137
-0.120499
0.342058
-0.128252
0.317472
-0.13553
0.293515
-0.141159
0.2696
-0.145077
0.246492
-0.14724
0.224388
-0.148057
0.203185
-0.148765
0.184297
-0.146611
0.165107
-0.140151
0.144983
-0.129213
0.12445
-0.110448
0.0999785
-0.0782497
0.0666515
-0.0423332
0.0341417
-0.0151208
0.0107977
0.00040231
-0.0036197
0.00730266
-0.00939741
0.0100328
-0.0104347
0.0108659
-0.00806711
0.0104833
-0.00466092
0.00918163
-0.0012838
0.00719279
0.00153031
0.00497304
0.00363248
0.00274095
0.00490462
0.000908659
0.00489059
0.0028925
0.0132411
0.923383
0.0173966
1.01735
0.018645
0.97687
0.0186815
0.939472
0.0185447
0.897731
0.0170221
0.862585
0.0154499
0.826326
0.0132156
0.793789
0.0105362
0.761829
0.00735458
0.731721
0.00289418
0.703361
-0.00250875
0.676047
-0.00850978
0.64968
-0.0152132
0.624165
-0.0226811
0.599324
-0.0309431
0.575072
-0.0400542
0.551141
-0.0499076
0.527146
-0.0603784
0.502993
-0.0713293
0.478575
-0.0825047
0.453791
-0.0936402
0.42866
-0.104604
0.403317
-0.115217
0.377751
-0.125093
0.351934
-0.133615
0.325995
-0.140367
0.300266
-0.146043
0.275277
-0.15039
0.250839
-0.15402
0.228018
-0.1574
0.206565
-0.156698
0.183596
-0.150748
0.159157
-0.139992
0.134226
-0.118701
0.103159
-0.0863989
0.0676765
-0.0565951
0.0368477
-0.0371009
0.0146475
-0.0278929
0.00158959
-0.0232346
-0.00827797
-0.0187434
-0.0138886
-0.0135182
-0.0156599
-0.0081054
-0.0134799
-0.00391438
-0.00885193
-0.00155251
-0.00364568
-0.000692225
0.000670026
-0.000484841
0.00342509
-0.000470411
0.00489019
-0.000379139
0.00479932
0.00251336
0.00830724
0.915076
0.0134856
1.01217
0.0146818
0.975674
0.0159207
0.938233
0.0172873
0.896364
0.0179064
0.861966
0.0173076
0.826925
0.0163941
0.794703
0.0144854
0.763738
0.0118463
0.73436
0.00895988
0.706247
0.00540196
0.679605
0.000652486
0.65443
-0.00525975
0.630077
-0.012081
0.606146
-0.0198677
0.582859
-0.0286858
0.559959
-0.038532
0.536992
-0.0492415
0.513702
-0.0605144
0.489848
-0.0721741
0.465451
-0.0840459
0.440532
-0.0959754
0.415246
-0.107698
0.389473
-0.118837
0.363073
-0.129358
0.336516
-0.139353
0.310261
-0.148053
0.283977
-0.155499
0.258285
-0.161046
0.233565
-0.163064
0.208582
-0.159409
0.17994
-0.150114
0.149863
-0.129014
0.113126
-0.101894
0.0760393
-0.0804918
0.0462746
-0.0692929
0.0256488
-0.0650255
0.0103801
-0.0599876
-0.00344835
-0.0539995
-0.014266
-0.046182
-0.0217062
-0.0368125
-0.0250294
-0.026536
-0.0237564
-0.0169334
-0.0184545
-0.0094651
-0.011114
-0.00496908
-0.00382599
-0.002857
0.001313
-0.00158312
0.00361632
-0.000645737
0.00386193
0.00186763
0.012439
0.902637
0.0180395
1.00657
0.0183604
0.975353
0.0191358
0.937457
0.019502
0.895998
0.0195572
0.861911
0.0189423
0.82754
0.0180229
0.795622
0.0168003
0.76496
0.0151359
0.736024
0.0120266
0.709357
0.00812915
0.683503
0.00371943
0.658839
-0.00156097
0.635357
-0.0079572
0.612542
-0.0153278
0.59023
-0.023856
0.568487
-0.0336799
0.546816
-0.0445863
0.524609
-0.0564567
0.501718
-0.068981
0.477976
-0.0819738
0.453525
-0.0953031
0.428576
-0.108717
0.402887
-0.12158
0.375937
-0.133804
0.34874
-0.144006
0.320462
-0.152808
0.292779
-0.160464
0.265941
-0.164069
0.23717
-0.162596
0.20711
-0.156598
0.173942
-0.137523
0.130788
-0.116047
0.0916498
-0.101234
0.0612258
-0.0961742
0.0412149
-0.0934265
0.0229011
-0.088346
0.00529967
-0.0823848
-0.00940954
-0.0759515
-0.0206994
-0.0686373
-0.0290204