/*--------------------------------*- C++ -*----------------------------------*\
| =========                 |                                                 |
| \\      /  F ield         | OpenFOAM: The Open Source CFD Toolbox           |
|  \\    /   O peration     | Version:  v1912                                 |
|   \\  /    A nd           | Website:  www.openfoam.com                      |
|    \\/     M anipulation  |                                                 |
\*---------------------------------------------------------------------------*/
FoamFile
{
    version     2.0;
    format      ascii;
    class       volVectorField;
    location    "0.18";
    object      U;
}
// * * * * * * * * * * * * * * * * * * * * * * * * * * * * * * * * * * * * * //

dimensions      [0 1 -1 0 0 0 0];


internalField   nonuniform List<vector> 
6600
(
(39.8447 -0.0459346 0)
(40.1023 -0.0423671 8.41545e-21)
(40.1767 0.0645402 5.92148e-19)
(40.2326 0.173157 0)
(40.2869 0.290329 7.14921e-19)
(40.3431 0.440301 2.36524e-20)
(40.381 0.596726 -2.63165e-20)
(40.4436 0.77963 -2.96302e-20)
(40.4837 0.957378 6.30825e-19)
(40.5312 1.1615 -1.16362e-19)
(40.5638 1.39517 0)
(40.5511 1.64853 -8.55202e-19)
(40.5614 1.88821 0)
(40.5445 2.14417 -9.49921e-19)
(40.4909 2.41829 -1.45365e-18)
(40.4531 2.6979 -8.12718e-19)
(40.3836 2.99468 0)
(40.3027 3.30152 0)
(40.2019 3.62825 1.52605e-18)
(40.0811 3.97098 -1.40612e-18)
(39.9516 4.33169 -2.18474e-19)
(39.8113 4.71749 -8.70051e-19)
(39.6595 5.11645 -1.67615e-18)
(39.4761 5.52996 3.92904e-19)
(39.2632 5.91418 1.49636e-18)
(39.1173 6.36593 0)
(38.9086 6.8672 3.87963e-18)
(38.6118 7.38088 0)
(38.3196 7.94226 -2.06776e-18)
(38.0475 8.56199 -1.38653e-18)
(37.7707 9.19618 -3.38459e-19)
(37.4709 9.86063 -1.81338e-18)
(37.1722 10.5697 -7.62498e-19)
(36.8662 11.3274 1.61177e-18)
(36.543 12.1261 3.45835e-19)
(36.2331 12.973 1.99294e-18)
(35.9354 13.901 3.86105e-18)
(35.6474 14.8863 3.9098e-18)
(35.388 15.9363 -2.91675e-18)
(35.1411 17.061 3.14685e-18)
(34.9155 18.2596 1.69885e-18)
(34.7324 19.5417 0)
(34.5825 20.9002 -5.24673e-19)
(34.4692 22.3519 1.26451e-18)
(34.4023 23.8717 0)
(34.4168 25.5425 -3.91893e-19)
(34.443 27.1666 -1.17345e-18)
(34.737 29.2349 0)
(33.1584 29.8838 0)
(23.642 22.7304 -1.35625e-18)
(39.7445 -0.0425557 4.93349e-19)
(40.1919 -0.0571772 -4.81125e-19)
(40.2641 0.0847364 0)
(40.3102 0.230568 -8.89203e-21)
(40.354 0.397718 5.91308e-19)
(40.4038 0.56074 2.1181e-20)
(40.4908 0.759558 -1.09121e-22)
(40.5476 0.945121 -2.60113e-20)
(40.595 1.15729 0)
(40.6092 1.37024 -1.02474e-18)
(40.6333 1.56265 -3.74709e-20)
(40.6558 1.77329 6.46942e-19)
(40.6657 2.01912 7.02293e-19)
(40.684 2.27522 5.92658e-19)
(40.6846 2.54367 -4.34168e-21)
(40.6615 2.83346 8.16926e-20)
(40.6204 3.1397 -7.3831e-19)
(40.5579 3.45926 0)
(40.4826 3.7988 0)
(40.3827 4.15489 1.45573e-18)
(40.2697 4.52802 2.10157e-19)
(40.1318 4.92634 -1.13135e-18)
(39.9717 5.34184 -1.06987e-18)
(39.8052 5.80292 -1.27247e-18)
(39.6515 6.35685 -1.08802e-18)
(39.3982 6.86207 -4.64851e-19)
(39.1243 7.35856 -6.30671e-19)
(38.921 7.91735 -6.43283e-19)
(38.6995 8.49169 2.05035e-18)
(38.4458 9.06853 3.04128e-19)
(38.1953 9.70764 -2.73029e-18)
(37.9441 10.3998 2.55497e-18)
(37.6803 11.1203 1.87792e-18)
(37.404 11.8752 -2.39006e-18)
(37.1439 12.6784 3.60093e-19)
(36.8867 13.5452 -2.03826e-18)
(36.6469 14.4505 1.7037e-18)
(36.4488 15.419 -1.38276e-18)
(36.2593 16.4462 -9.77275e-19)
(36.1004 17.5375 -1.11357e-18)
(35.9824 18.6962 0)
(35.8908 19.9195 0)
(35.8492 21.1949 -1.57843e-19)
(35.894 22.5679 1.02039e-19)
(36.0547 24.0244 -6.24486e-19)
(36.2899 25.6116 4.04644e-19)
(36.5401 27.153 2.62455e-18)
(36.9651 28.9544 0)
(35.2537 29.1965 -3.65747e-18)
(24.3852 21.4993 1.54822e-18)
(39.668 -0.00740042 -5.79265e-20)
(40.3117 -0.0497529 4.90477e-19)
(40.3615 0.117038 4.47423e-19)
(40.445 0.26483 -3.98149e-22)
(40.5122 0.427109 -1.17934e-19)
(40.5759 0.622955 1.85507e-20)
(40.6206 0.799528 0)
(40.6884 1.00901 0)
(40.7534 1.22196 0)
(40.8191 1.4752 5.18859e-19)
(40.8493 1.74335 -3.15673e-20)
(40.8522 2.0205 -6.5126e-19)
(40.8696 2.28247 -4.06827e-19)
(40.8584 2.57876 7.61218e-19)
(40.824 2.88317 4.32356e-19)
(40.7954 3.195 -7.42483e-20)
(40.7417 3.52563 1.44439e-18)
(40.6749 3.86878 -7.40045e-19)
(40.5918 4.23264 -8.88368e-19)
(40.4909 4.61435 0)
(40.3839 5.01482 -6.3922e-19)
(40.2688 5.43934 9.07798e-19)
(40.1445 5.87998 1.08268e-18)
(39.9783 6.30615 1.2885e-18)
(39.8002 6.7182 1.16259e-18)
(39.7026 7.22397 -1.39887e-19)
(39.54 7.7727 -2.37792e-19)
(39.2882 8.32011 -7.424e-19)
(39.0487 8.91507 -3.23689e-19)
(38.835 9.5671 1.28099e-18)
(38.6228 10.2233 4.2923e-19)
(38.3972 10.9041 0)
(38.1837 11.6284 -2.20034e-18)
(37.974 12.398 6.03588e-19)
(37.7567 13.199 1.32585e-18)
(37.5687 14.0333 1.90607e-18)
(37.4062 14.9378 -1.04235e-18)
(37.2652 15.8849 -7.77298e-19)
(37.1732 16.8826 3.94073e-19)
(37.1131 17.9369 0)
(37.0957 19.0452 -1.66167e-19)
(37.1494 20.2157 0)
(37.2651 21.4388 0)
(37.4438 22.7224 7.99553e-19)
(37.6921 24.042 5.36695e-19)
(38.0376 25.4707 -1.65877e-18)
(38.4609 26.9571 -1.71302e-18)
(38.8435 28.3937 0)
(36.8652 28.1479 -2.31831e-18)
(24.6546 19.8916 2.52738e-18)
(39.6375 -0.00593047 -4.3867e-19)
(40.467 -0.0319824 2.91813e-21)
(40.5029 0.202294 -4.58857e-19)
(40.57 0.343927 -3.59529e-19)
(40.6274 0.556889 -4.8679e-19)
(40.6906 0.742077 -1.94717e-19)
(40.782 0.979891 -1.61282e-20)
(40.8418 1.18737 0)
(40.8842 1.42266 2.62007e-19)
(40.8986 1.64514 3.18443e-19)
(40.9486 1.87147 -2.48633e-20)
(40.9821 2.12769 -2.99885e-20)
(40.9925 2.40911 -2.77686e-19)
(41.0354 2.68221 -1.33372e-19)
(41.0347 2.98496 -5.86368e-20)
(41.0258 3.30345 -6.01374e-20)
(40.9959 3.64138 -7.41509e-20)
(40.9479 3.99306 8.32877e-19)
(40.8897 4.3654 1.15047e-18)
(40.8083 4.75579 0)
(40.7161 5.1647 1.32229e-19)
(40.6004 5.59688 0)
(40.4648 6.04728 0)
(40.3376 6.55447 -2.57313e-19)
(40.2108 7.13547 8.07331e-19)
(39.9849 7.66233 9.46259e-19)
(39.7584 8.18838 -1.98305e-19)
(39.6101 8.77905 1.04869e-18)
(39.4478 9.38206 0)
(39.2581 9.9818 0)
(39.0785 10.642 5.98016e-19)
(38.9091 11.3496 0)
(38.7352 12.0774 5.68988e-19)
(38.5603 12.8323 9.10451e-19)
(38.417 13.63 -1.65121e-18)
(38.2882 14.4816 -1.66114e-18)
(38.1907 15.3533 1.23986e-18)
(38.1511 16.2749 -4.64677e-19)
(38.1336 17.2379 2.99414e-19)
(38.1658 18.2437 3.45919e-19)
(38.2605 19.2938 -2.38662e-19)
(38.3989 20.383 0)
(38.6048 21.4946 0)
(38.9147 22.6661 -6.46518e-19)
(39.3649 23.8886 -1.62401e-18)
(39.8976 25.2036 -5.92713e-19)
(40.4558 26.5482 -3.17169e-18)
(40.7932 27.6564 3.50239e-18)
(38.2842 26.9122 5.17265e-18)
(24.4551 17.9881 0)
(39.6048 0.0385519 -1.14388e-21)
(40.6433 0.00186752 2.42863e-19)
(40.6666 0.253486 2.59423e-19)
(40.7539 0.391732 3.72947e-19)
(40.8258 0.586137 0)
(40.8966 0.812194 7.32406e-20)
(40.9478 1.01234 0)
(41.0252 1.25498 -1.20487e-20)
(41.104 1.49565 -4.06385e-19)
(41.1718 1.78048 -3.12982e-19)
(41.2007 2.0736 1.70458e-20)
(41.2144 2.37798 2.08179e-20)
(41.2432 2.66578 -2.3171e-20)
(41.2343 2.99866 -2.77119e-19)
(41.2176 3.3297 -5.79649e-19)
(41.1966 3.67129 4.0261e-20)
(41.1563 4.03343 -8.05755e-19)
(41.1037 4.40796 6.54072e-20)
(41.0379 4.80375 -3.48277e-19)
(40.957 5.21777 -1.85191e-19)
(40.8725 5.65089 6.25368e-19)
(40.7841 6.1064 0)
(40.6901 6.57596 0)
(40.5468 7.01445 -3.19373e-19)
(40.4034 7.45331 -5.27111e-19)
(40.3486 7.98733 5.80923e-19)
(40.2368 8.564 -1.53145e-19)
(40.0372 9.13323 0)
(39.8553 9.74739 2.05467e-19)
(39.7086 10.4192 -2.28863e-19)
(39.5721 11.0875 -6.07799e-19)
(39.4296 11.771 -6.8066e-19)
(39.3106 12.4919 2.95595e-19)
(39.2074 13.2528 -2.69838e-19)
(39.1067 14.035 3.00259e-19)
(39.0509 14.835 0)
(39.0353 15.6943 -3.25931e-19)
(39.0494 16.5782 1.40457e-19)
(39.1291 17.4938 -2.27341e-20)
(39.256 18.4427 -1.0862e-19)
(39.4357 19.419 4.1948e-19)
(39.7003 20.4276 0)
(40.0423 21.4635 0)
(40.459 22.5241 -1.56032e-18)
(40.9419 23.5797 3.4005e-18)
(41.5071 24.6977 9.12215e-19)
(42.12 25.939 1.98283e-18)
(42.1876 26.6466 -4.28889e-18)
(38.9775 25.3216 3.94634e-19)
(23.6081 15.7753 -7.03887e-18)
(39.6121 0.0593433 1.99175e-19)
(40.8272 0.027119 -1.04795e-19)
(40.8748 0.355739 -2.64969e-19)
(40.9436 0.487056 5.79665e-20)
(41.0014 0.733543 0)
(41.0663 0.94978 1.32508e-19)
(41.1641 1.2106 -2.97576e-21)
(41.2236 1.44271 -3.57594e-20)
(41.2514 1.69056 1.57189e-19)
(41.2956 1.94835 0)
(41.3486 2.19289 8.34614e-21)
(41.3864 2.47754 1.85637e-20)
(41.4073 2.78783 -4.99482e-20)
(41.4646 3.08151 1.38471e-20)
(41.473 3.41283 2.32252e-19)
(41.4777 3.75717 -2.19584e-20)
(41.4655 4.12263 2.88442e-19)
(41.4357 4.50284 -3.50882e-20)
(41.3973 4.90346 4.94724e-20)
(41.3375 5.32269 9.57669e-20)
(41.2704 5.76087 1.53865e-19)
(41.1819 6.22361 -3.8788e-21)
(41.0748 6.70511 1.06525e-19)
(40.9922 7.2569 4.39498e-19)
(40.9058 7.86328 0)
(40.7196 8.41083 -4.48792e-19)
(40.5352 8.95073 1.03053e-19)
(40.4392 9.55583 6.75782e-22)
(40.3414 10.1719 -8.55736e-20)
(40.2219 10.777 1.41028e-19)
(40.1175 11.437 -1.687e-19)
(40.0345 12.1389 4.21879e-19)
(39.9541 12.8523 0)
(39.8817 13.5798 0)
(39.8558 14.3395 0)
(39.8553 15.1447 0)
(39.8955 15.9506 4.01889e-19)
(40.0075 16.7888 -7.33259e-19)
(40.1487 17.6479 0)
(40.3468 18.5256 4.21478e-20)
(40.6186 19.4216 -2.23265e-19)
(40.9362 20.3291 -2.19939e-18)
(41.3198 21.2268 1.20595e-18)
(41.8037 22.1452 0)
(42.4307 23.0868 1.3775e-18)
(43.1255 24.1019 -5.01022e-18)
(43.7127 25.1181 3.56912e-18)
(43.5517 25.4806 2.78395e-18)
(39.3054 23.568 1.04478e-17)
(22.0722 13.3075 -7.81653e-18)
(39.651 0.0809308 -1.98878e-19)
(41.0383 0.0446997 -1.61023e-19)
(41.0728 0.419414 9.66035e-22)
(41.1802 0.526684 -5.87115e-20)
(41.2449 0.784139 -3.29944e-20)
(41.3128 1.01352 1.45181e-22)
(41.3682 1.24028 -6.80321e-20)
(41.4539 1.50098 3.59026e-20)
(41.5682 1.79209 -1.0534e-19)
(41.6256 2.09015 1.1404e-21)
(41.6663 2.40991 6.97021e-20)
(41.6993 2.73114 -1.05291e-19)
(41.7326 3.05253 3.77095e-20)
(41.7382 3.42 0)
(41.7433 3.78083 0)
(41.7382 4.15476 1.26003e-21)
(41.7194 4.54855 2.25246e-20)
(41.6883 4.95473 0)
(41.6461 5.38162 6.97108e-21)
(41.5914 5.82466 -1.59879e-19)
(41.535 6.28525 -1.79799e-19)
(41.4769 6.76552 -1.44545e-20)
(41.4162 7.25504 0)
(41.296 7.69887 -1.80221e-19)
(41.1869 8.15548 -3.15245e-20)
(41.1751 8.70594 3.51666e-20)
(41.1233 9.30254 0)
(40.9821 9.88015 0)
(40.8572 10.4892 -2.21449e-19)
(40.7754 11.1562 8.0703e-20)
(40.714 11.8171 1.83509e-19)
(40.6516 12.4797 -1.38081e-20)
(40.6217 13.1678 6.05787e-20)
(40.6197 13.889 -1.94993e-19)
(40.6274 14.6203 5.52612e-19)
(40.6891 15.3477 3.1271e-19)
(40.8032 16.1215 -3.02721e-19)
(40.9456 16.9018 5.03906e-19)
(41.1595 17.6921 -1.1688e-18)
(41.4274 18.4924 5.51099e-20)
(41.7424 19.2947 -2.72873e-19)
(42.1403 20.0987 1.13947e-18)
(42.6189 20.9074 1.89375e-18)
(43.1751 21.7135 -2.10368e-18)
(43.7722 22.4884 1.37109e-18)
(44.4421 23.3734 0)
(44.8221 24.0537 2.23982e-18)
(44.1544 24.0839 3.51134e-18)
(38.5987 21.4511 -7.14019e-18)
(19.644 10.6001 -2.18565e-18)
(39.7258 0.105481 -2.18567e-20)
(41.2773 0.0541617 2.26095e-20)
(41.3326 0.511595 -3.92424e-22)
(41.4221 0.612189 1.01872e-19)
(41.4735 0.918455 1.59271e-19)
(41.5599 1.15839 -1.60021e-19)
(41.6399 1.42857 2.60908e-19)
(41.7093 1.69442 -1.12069e-19)
(41.7343 1.95417 1.04636e-19)
(41.7986 2.2365 1.57917e-19)
(41.8693 2.506 -2.58419e-19)
(41.9149 2.81972 9.43595e-20)
(41.9576 3.14697 2.22822e-19)
(42.0276 3.46547 -1.72586e-22)
(42.0592 3.82368 1.28034e-19)
(42.0841 4.19588 -1.54483e-19)
(42.0956 4.58849 4.35982e-20)
(42.0919 4.99649 0)
(42.08 5.42383 0)
(42.0494 5.86904 0)
(42.0135 6.33202 1.48179e-20)
(41.9577 6.81966 -1.69812e-20)
(41.8821 7.32547 1.35178e-19)
(41.8493 7.91252 1.84215e-20)
(41.8119 8.53996 0)
(41.6696 9.10162 0)
(41.5222 9.64204 -1.37376e-19)
(41.4766 10.2477 4.45204e-20)
(41.4441 10.8649 -9.91993e-20)
(41.3932 11.454 1.16572e-19)
(41.3566 12.0835 2.63549e-20)
(41.351 12.7516 3.30983e-19)
(41.3542 13.4244 -1.23491e-19)
(41.368 14.0934 5.50381e-19)
(41.4389 14.7776 -3.03319e-19)
(41.5422 15.5012 -1.17849e-19)
(41.6832 16.205 1.48935e-19)
(41.9035 16.9204 5.26902e-19)
(42.1513 17.6375 4.86764e-19)
(42.4485 18.351 8.79993e-19)
(42.8213 19.0603 -2.51167e-19)
(43.234 19.7609 1.75362e-18)
(43.6993 20.4256 -1.95052e-18)
(44.2432 21.0751 0)
(44.9265 21.7471 0)
(45.6454 22.5352 0)
(45.8295 22.8614 0)
(44.529 22.5712 0)
(37.3519 19.199 -4.07333e-18)
(16.3375 7.76004 6.69072e-18)
(39.8158 0.126905 2.20237e-20)
(41.5341 0.0706726 0)
(41.5834 0.542616 0)
(41.6867 0.643228 -1.04513e-19)
(41.765 0.954942 -1.24425e-19)
(41.8321 1.19312 1.64012e-19)
(41.9162 1.44731 -1.97324e-19)
(42.0126 1.73461 1.12426e-19)
(42.1347 2.04297 -2.19102e-19)
(42.2055 2.36482 -1.64574e-19)
(42.2513 2.7101 1.73876e-19)
(42.3248 3.05357 -3.16798e-19)
(42.3737 3.41535 -4.14008e-19)
(42.4076 3.80913 0)
(42.4411 4.19878 -1.40023e-19)
(42.4599 4.60531 1.82018e-19)
(42.4715 5.02843 1.20032e-22)
(42.4691 5.46568 3.55672e-19)
(42.4579 5.92169 -4.38646e-19)
(42.4345 6.39178 0)
(42.409 6.87663 0)
(42.3823 7.37782 -2.89963e-19)
(42.3552 7.88137 1.77374e-19)
(42.2629 8.33285 3.78076e-19)
(42.1809 8.79066 7.97591e-20)
(42.205 9.33884 -3.42865e-19)
(42.2143 9.94281 4.37428e-19)
(42.1348 10.5153 -4.92774e-19)
(42.0623 11.0983 2.37454e-19)
(42.0359 11.7419 -2.00397e-19)
(42.0391 12.3772 1.18315e-19)
(42.0416 12.9942 -3.03212e-19)
(42.0786 13.6189 3.10881e-19)
(42.154 14.2701 -4.18281e-19)
(42.2403 14.9237 0)
(42.3791 15.5477 -4.74012e-19)
(42.5789 16.2036 -4.43082e-19)
(42.7946 16.851 1.46023e-19)
(43.0752 17.4887 1.15175e-18)
(43.4126 18.1174 -1.1177e-18)
(43.7811 18.7294 -2.2359e-19)
(44.2196 19.3172 -2.03957e-18)
(44.7357 19.8937 4.82715e-18)
(45.3366 20.4597 3.44165e-19)
(45.982 21.0372 3.9816e-19)
(46.4266 21.4834 -1.9612e-18)
(46.2594 21.5922 0)
(43.9053 20.7776 3.62692e-18)
(34.6243 16.4921 -1.93913e-18)
(11.9087 4.76688 0)
(39.9301 0.163015 -1.04545e-21)
(41.8249 0.0892558 -1.65065e-22)
(41.893 0.612937 2.42127e-19)
(41.9783 0.721162 0)
(42.0453 1.08214 4.59945e-21)
(42.134 1.32852 1.96533e-19)
(42.2315 1.61757 0)
(42.2949 1.89171 -2.73043e-19)
(42.3542 2.18411 2.36871e-19)
(42.4359 2.47825 -1.88868e-20)
(42.5325 2.77138 -4.21091e-19)
(42.5876 3.10525 6.64478e-20)
(42.6592 3.44966 2.19505e-19)
(42.7496 3.79201 0)
(42.8096 4.17626 0)
(42.8658 4.57115 0)
(42.9073 4.99021 4.26299e-19)
(42.934 5.42443 -3.58433e-19)
(42.9549 5.87628 7.75706e-19)
(42.9595 6.34558 -7.25613e-20)
(42.9583 6.82982 1.63547e-19)
(42.938 7.33721 1.99698e-19)
(42.8972 7.86101 -8.58892e-19)
(42.9088 8.46733 -6.82998e-19)
(42.9253 9.11164 0)
(42.8278 9.68224 3.399e-19)
(42.7066 10.2073 -8.6693e-19)
(42.6957 10.794 4.768e-19)
(42.716 11.4 -2.73061e-19)
(42.722 11.9576 1.58049e-19)
(42.7354 12.5336 -2.09311e-19)
(42.7844 13.1442 8.04959e-19)
(42.8466 13.7565 -8.26855e-19)
(42.9128 14.3463 1.20749e-18)
(43.0397 14.9285 4.93727e-19)
(43.2044 15.5485 -1.16775e-18)
(43.3901 16.133 1.48315e-18)
(43.6559 16.7078 -9.61345e-19)
(43.9461 17.2695 3.39854e-20)
(44.2663 17.8111 0)
(44.6582 18.3304 1.64242e-18)
(45.0861 18.8312 1.14199e-18)
(45.5547 19.2838 1.34224e-19)
(46.0738 19.7092 -3.24804e-18)
(46.7438 20.1998 -1.13569e-19)
(46.9537 20.3536 -2.2982e-18)
(46.4067 20.1926 0)
(42.7467 18.7205 3.72587e-18)
(31.2134 13.5237 -6.27007e-18)
(6.93125 1.77758 0)
(40.071 0.173873 0)
(42.1306 0.094878 0)
(42.1942 0.625576 -7.6648e-20)
(42.2904 0.716252 1.07677e-20)
(42.3575 1.06883 -2.38374e-19)
(42.4517 1.31756 -2.02057e-19)
(42.5517 1.59105 0)
(42.6863 1.89253 2.73669e-19)
(42.8106 2.22611 -4.20856e-19)
(42.8958 2.55587 0)
(42.9821 2.93607 7.03236e-19)
(43.0859 3.29047 -8.17271e-20)
(43.1782 3.68122 4.1172e-20)
(43.2421 4.10545 -4.58902e-20)
(43.3118 4.5204 0)
(43.3657 4.95603 0)
(43.4113 5.40693 -1.87149e-19)
(43.4431 5.87095 -3.34125e-19)
(43.4665 6.35277 1.17359e-19)
(43.4762 6.84935 -5.3117e-20)
(43.4826 7.35649 1.20068e-19)
(43.485 7.87492 -6.78654e-20)
(43.4863 8.39041 5.2928e-19)
(43.4285 8.85472 2.1198e-19)
(43.3619 9.30453 -3.84714e-19)
(43.4029 9.83349 -5.63283e-19)
(43.4636 10.4315 3.30915e-19)
(43.439 10.9889 5.41807e-19)
(43.4024 11.5277 0)
(43.4066 12.1272 0)
(43.4493 12.7241 0)
(43.489 13.2839 -5.7637e-19)
(43.5555 13.8275 -4.15406e-19)
(43.6701 14.39 -3.95983e-19)
(43.795 14.9574 6.41032e-19)
(43.9575 15.4693 7.74627e-19)
(44.1898 15.9962 -3.25424e-19)
(44.4213 16.5068 1.07352e-18)
(44.6989 16.993 -6.26386e-19)
(45.0374 17.4562 -8.3433e-19)
(45.3905 17.8931 -1.02073e-18)
(45.7936 18.2853 1.13809e-18)
(46.265 18.6582 0)
(46.9076 19.0964 1.74042e-18)
(47.2517 19.2938 -9.64749e-19)
(47.167 19.2561 1.26753e-18)
(45.6919 18.638 0)
(40.1476 16.2493 -1.7723e-18)
(26.1121 9.91139 1.01929e-18)
(4.11817 0.269103 0)
(40.2445 0.226407 -1.63647e-19)
(42.4529 0.124663 0)
(42.539 0.679383 -3.89741e-19)
(42.6296 0.758431 2.57644e-19)
(42.7011 1.16217 2.32556e-19)
(42.8025 1.39989 -9.78072e-21)
(42.8937 1.70656 1.08852e-20)
(42.9865 2.00149 0)
(43.0701 2.2955 4.06505e-19)
(43.1934 2.60664 -2.91504e-19)
(43.308 2.91105 -2.81602e-19)
(43.415 3.27913 3.48717e-19)
(43.5035 3.63625 -2.37552e-19)
(43.6208 3.99643 -6.11934e-20)
(43.7202 4.40119 3.46833e-20)
(43.8106 4.81978 0)
(43.8874 5.2628 -3.74416e-19)
(43.9489 5.72142 4.27836e-19)
(44.0045 6.19666 6.40259e-20)
(44.0447 6.68889 -1.8245e-21)
(44.0787 7.19351 7.96241e-20)
(44.0926 7.7175 0)
(44.0854 8.25502 1.07498e-19)
(44.1235 8.86226 4.31307e-19)
(44.1888 9.51888 4.90055e-19)
(44.1361 10.1022 5.66302e-19)
(44.0257 10.6082 0)
(44.0209 11.1609 -3.82953e-19)
(44.0674 11.7463 -8.24359e-19)
(44.1062 12.2689 4.42965e-19)
(44.1393 12.7778 -9.40946e-19)
(44.2058 13.3143 -4.5268e-19)
(44.2924 13.8587 7.88295e-19)
(44.3713 14.3698 -2.84175e-19)
(44.5056 14.8429 -6.46551e-19)
(44.688 15.3552 -3.24348e-19)
(44.8644 15.8274 -4.58543e-19)
(45.1136 16.2703 0)
(45.3923 16.6896 -7.60449e-19)
(45.6747 17.0802 1.68631e-18)
(46.0181 17.4327 1.03449e-18)
(46.399 17.7663 -1.22516e-18)
(46.8492 18.085 1.52554e-18)
(47.2733 18.3271 -7.75445e-19)
(47.3473 18.3471 2.03772e-18)
(46.8497 18.0749 -1.15451e-20)
(44.1993 16.9063 0)
(36.4391 13.5397 3.58392e-18)
(20.0015 6.26766 -3.01278e-18)
(1.82823 -0.264073 -1.07018e-18)
(40.4442 0.195005 1.63783e-19)
(42.7922 0.115995 -2.40462e-19)
(42.8564 0.664017 2.18732e-19)
(42.941 0.719208 -2.5336e-19)
(43.0161 1.09177 -1.80649e-19)
(43.1373 1.31924 -1.18935e-20)
(43.288 1.61874 6.7489e-21)
(43.4307 1.92402 0)
(43.5817 2.26902 -3.05782e-19)
(43.7046 2.6268 4.7607e-19)
(43.8203 3.00448 0)
(43.9621 3.36519 -2.92284e-20)
(44.115 3.79007 1.215e-20)
(44.2255 4.23583 3.01616e-19)
(44.3361 4.67941 -4.3743e-19)
(44.4334 5.13883 -1.66524e-21)
(44.5168 5.61675 5.79813e-20)
(44.5857 6.10751 0)
(44.6441 6.61536 -2.11637e-19)
(44.6859 7.13778 4.42334e-19)
(44.7208 7.66874 -5.05982e-20)
(44.7464 8.20612 0)
(44.7662 8.7363 0)
(44.7402 9.22073 -2.10984e-19)
(44.673 9.6625 8.98706e-20)
(44.6979 10.1581 -6.53142e-19)
(44.7873 10.7423 2.34575e-19)
(44.8058 11.2903 -1.33135e-19)
(44.7833 11.7823 4.07902e-19)
(44.7833 12.3226 1.7829e-19)
(44.8297 12.8767 5.33536e-19)
(44.8728 13.3841 -5.72043e-19)
(44.9259 13.8475 3.66534e-19)
(45.0362 14.3141 -3.62859e-19)
(45.1633 14.8027 -4.15237e-19)
(45.2992 15.218 -4.35928e-19)
(45.514 15.6255 0)
(45.7195 16.0156 1.04175e-18)
(45.939 16.375 -3.86785e-19)
(46.2246 16.7006 -9.15791e-19)
(46.5175 17.0024 1.08587e-18)
(46.8515 17.2643 -2.64803e-20)
(47.3034 17.5422 -7.54849e-19)
(47.4623 17.6146 -1.78518e-20)
(47.3326 17.5169 -1.09052e-18)
(45.9248 16.9045 -2.58943e-18)
(41.36 15.0969 1.45115e-18)
(30.5097 10.7578 0)
(10.5557 2.70659 -1.90227e-18)
(-0.091339 -0.162681 3.66392e-18)
(40.598 0.215315 4.58309e-22)
(43.1368 0.0953153 2.41809e-19)
(43.2062 0.666564 -7.87521e-20)
(43.3021 0.727915 -2.65006e-21)
(43.3867 1.13166 1.80954e-19)
(43.5056 1.35725 0)
(43.6087 1.65614 0)
(43.7461 1.95785 -9.75836e-21)
(43.8742 2.24845 5.27939e-19)
(44.0143 2.5489 -1.88353e-19)
(44.1981 2.89096 1.52447e-20)
(44.3407 3.27959 -3.46871e-20)
(44.4584 3.625 1.58744e-19)
(44.6114 4.01279 -1.59654e-19)
(44.7554 4.43596 6.28026e-19)
(44.8892 4.87777 -1.36022e-19)
(45.0042 5.34668 1.57097e-19)
(45.1063 5.83041 4.20368e-20)
(45.1973 6.33245 -4.41664e-19)
(45.2722 6.84942 -2.88395e-19)
(45.3375 7.37774 1.59822e-21)
(45.3817 7.92208 -7.10227e-20)
(45.4031 8.47502 0)
(45.447 9.07713 -2.95607e-19)
(45.5412 9.74417 1.22569e-21)
(45.5272 10.3529 5.92823e-20)
(45.4107 10.8516 6.97382e-20)
(45.3746 11.3637 1.74732e-19)
(45.4084 11.9276 0)
(45.4493 12.4293 1.08619e-19)
(45.4692 12.8771 6.00517e-19)
(45.5109 13.3338 5.33588e-19)
(45.5865 13.8097 -2.72397e-19)
(45.646 14.2613 5.61581e-19)
(45.7414 14.6375 -4.56036e-19)
(45.9048 15.0487 -2.73905e-19)
(46.0354 15.4303 0)
(46.2161 15.7696 -6.98828e-19)
(46.4458 16.0766 -4.3591e-19)
(46.6572 16.3573 4.86899e-19)
(46.9141 16.5962 -5.69178e-19)
(47.2976 16.881 6.34527e-19)
(47.4544 16.9854 0)
(47.4062 16.9649 4.66178e-19)
(46.5933 16.6322 0)
(43.8149 15.5669 6.34969e-19)
(36.7418 12.8533 -1.42996e-18)
(22.4745 7.34187 8.00599e-19)
(4.77519 1.00421 0)
(-1.02087 -0.0500231 2.41045e-19)
(40.8029 0.194305 6.76417e-23)
(43.44 0.0587151 7.78069e-23)
(43.5264 0.58267 8.09854e-20)
(43.602 0.625002 3.988e-22)
(43.7004 0.989273 3.39712e-21)
(43.8587 1.19957 5.29921e-22)
(44.0362 1.47851 -5.89857e-22)
(44.1993 1.78981 1.42367e-21)
(44.3915 2.1271 -1.93828e-19)
(44.5681 2.49642 -4.03733e-21)
(44.7146 2.85505 -2.23801e-21)
(44.9246 3.22537 5.09675e-21)
(45.1339 3.67972 1.72157e-19)
(45.3066 4.13686 -2.03093e-19)
(45.4742 4.60454 -2.4795e-19)
(45.6194 5.09336 1.35943e-19)
(45.7478 5.59944 -1.51959e-19)
(45.8588 6.12239 -6.65385e-21)
(45.9554 6.66151 -7.66423e-21)
(46.0302 7.21547 0)
(46.0899 7.77701 -1.01007e-20)
(46.1309 8.34408 -5.40384e-21)
(46.1587 8.90164 6.04556e-21)
(46.1558 9.42391 0)
(46.0734 9.8759 0)
(46.045 10.3406 2.58512e-19)
(46.1258 10.9076 0)
(46.1672 11.4625 -1.74959e-19)
(46.1359 11.9231 0)
(46.0945 12.401 8.12538e-21)
(46.1038 12.9117 -2.81351e-19)
(46.1187 13.3844 1.9847e-20)
(46.1225 13.7898 -3.74207e-19)
(46.1856 14.162 3.31817e-20)
(46.2896 14.5827 2.04506e-19)
(46.3627 14.9318 3.09467e-19)
(46.5163 15.2441 -1.06212e-20)
(46.6779 15.5387 0)
(46.8126 15.8096 -7.10337e-21)
(47.0127 16.0416 8.21946e-21)
(47.3038 16.3181 0)
(47.4513 16.4567 -9.91942e-21)
(47.4609 16.4818 -4.81774e-20)
(47.0284 16.355 -4.09979e-19)
(45.2971 15.7318 -8.34069e-21)
(40.4463 13.9564 0)
(29.837 10.0644 0)
(11.7063 3.34631 1.09932e-19)
(1.12794 0.323249 -1.08858e-19)
(-1.5442 -0.0894324 2.44979e-19)
(40.9242 0.15244 1.66774e-19)
(43.711 0.0409503 1.86e-19)
(43.8437 0.535333 1.03488e-19)
(43.9375 0.565141 1.22288e-19)
(44.032 0.958436 1.29914e-19)
(44.174 1.13262 -1.5489e-19)
(44.3268 1.42866 0)
(44.5083 1.69627 0)
(44.6678 1.98846 1.25316e-19)
(44.8873 2.28273 4.03684e-21)
(45.116 2.64721 -1.60523e-19)
(45.2984 3.02579 -1.14735e-20)
(45.4636 3.37456 -2.18828e-19)
(45.6746 3.78376 2.55767e-19)
(45.8627 4.22741 3.24336e-19)
(46.0481 4.69214 0)
(46.2116 5.18917 0)
(46.3621 5.70316 6.65228e-21)
(46.4939 6.24102 7.66244e-21)
(46.6055 6.79359 -3.25376e-19)
(46.7003 7.35749 1.00982e-20)
(46.7697 7.93439 0)
(46.8137 8.51606 0)
(46.8452 9.12389 -6.52321e-20)
(46.9388 9.80487 -3.15716e-19)
(46.9569 10.4618 9.25756e-20)
(46.83 10.9891 0)
(46.7285 11.474 -2.27519e-19)
(46.7002 12.02 0)
(46.7062 12.5234 -8.12248e-21)
(46.6828 12.9371 0)
(46.6584 13.321 0)
(46.6864 13.7236 1.02212e-19)
(46.7099 14.1398 1.18076e-19)
(46.7288 14.4481 0)
(46.8427 14.7658 0)
(46.921 15.076 1.06152e-20)
(47.0025 15.3487 0)
(47.1643 15.5799 7.09857e-21)
(47.3533 15.8304 -2.70819e-19)
(47.5103 16.0256 2.85665e-19)
(47.541 16.0761 2.00689e-20)
(47.287 16.0524 1.13234e-20)
(46.0921 15.6815 -4.59119e-19)
(42.5294 14.4249 -2.6276e-19)
(34.434 11.5537 1.50121e-18)
(19.8014 6.27525 -6.71602e-19)
(4.46015 1.25985 -7.69665e-19)
(-1.10017 0.19245 6.35522e-19)
(-1.67156 -0.0231272 0)
(41.0615 0.0960383 -1.65953e-19)
(43.9673 -0.0258637 2.18272e-19)
(44.0859 0.421987 -1.01579e-19)
(44.2099 0.39092 1.43419e-19)
(44.3228 0.736097 -1.37851e-19)
(44.5077 0.885182 1.59441e-19)
(44.6969 1.15935 1.24507e-20)
(44.9448 1.45003 -1.38625e-20)
(45.186 1.76442 -1.08283e-19)
(45.3787 2.1092 -1.88856e-20)
(45.6077 2.45094 1.70693e-19)
(45.8871 2.83576 4.45459e-19)
(46.1566 3.30126 -2.88776e-19)
(46.3891 3.76472 -2.34266e-19)
(46.6252 4.24959 -1.06757e-18)
(46.8428 4.76604 4.97501e-20)
(47.0495 5.30488 -5.54859e-20)
(47.2165 5.86854 5.56175e-19)
(47.3587 6.45052 7.65904e-20)
(47.4736 7.04963 2.39427e-19)
(47.5614 7.65982 0)
(47.6185 8.27593 0)
(47.6484 8.88516 0)
(47.6519 9.47027 0)
(47.5576 9.97641 3.14072e-19)
(47.4473 10.4366 -8.02966e-19)
(47.4697 10.9895 0)
(47.5021 11.5743 7.35203e-19)
(47.4467 12.043 0)
(47.335 12.4745 0)
(47.2618 12.9391 -7.16671e-19)
(47.2164 13.3915 3.88308e-19)
(47.1489 13.777 -8.73509e-19)
(47.1201 14.0647 2.52489e-19)
(47.1821 14.4114 0)
(47.1828 14.7198 0)
(47.2384 14.9681 3.6846e-19)
(47.3597 15.1862 -1.25786e-18)
(47.4569 15.4195 0)
(47.6019 15.6509 -7.71479e-19)
(47.643 15.7268 1.16797e-18)
(47.4477 15.7421 -1.41605e-18)
(46.5888 15.5304 8.04327e-19)
(43.9165 14.6384 -9.33639e-19)
(37.6395 12.487 2.35708e-18)
(25.6163 8.28571 -2.06272e-18)
(8.38923 2.49517 1.32798e-18)
(0.460427 0.555462 -2.96136e-18)
(-2.06214 0.134081 3.49147e-18)
(-1.55649 0.0674687 -2.25138e-18)
(41.0517 0.0292964 -3.85285e-19)
(44.1818 -0.0812514 2.76853e-20)
(44.3017 0.336982 0)
(44.4191 0.302364 -2.63653e-19)
(44.5475 0.632714 -6.69334e-19)
(44.7492 0.761854 2.23735e-20)
(44.9604 0.999303 0)
(45.1435 1.23189 0)
(45.3823 1.4912 -3.72248e-20)
(45.6831 1.77942 4.14672e-20)
(45.9641 2.13044 -8.31717e-19)
(46.2092 2.49211 5.32615e-19)
(46.4631 2.84695 5.20624e-19)
(46.7374 3.27058 -6.73087e-19)
(46.9962 3.72859 7.10015e-19)
(47.242 4.21973 1.11629e-19)
(47.4511 4.74603 -1.19632e-18)
(47.6608 5.29999 -1.79846e-18)
(47.8485 5.88237 0)
(48.0088 6.48698 8.28447e-19)
(48.1405 7.10736 9.51427e-19)
(48.2382 7.74041 0)
(48.3022 8.3772 -1.24016e-18)
(48.3255 9.02196 0)
(48.3863 9.72826 0)
(48.4313 10.4622 8.00474e-19)
(48.3018 11.0785 5.28928e-19)
(48.1191 11.5768 1.15125e-18)
(47.9748 12.1135 0)
(47.8978 12.6425 0)
(47.8051 13.0681 3.41343e-19)
(47.6799 13.4088 4.16415e-19)
(47.6122 13.7215 1.42991e-18)
(47.5913 14.1028 2.81807e-21)
(47.5097 14.3779 5.11123e-21)
(47.5345 14.6071 -1.33076e-18)
(47.5835 14.8376 -1.12557e-20)
(47.5963 15.074 1.66914e-18)
(47.7293 15.3212 9.17172e-19)
(47.7702 15.4161 5.13316e-19)
(47.6044 15.4528 1.25465e-18)
(46.941 15.3349 2.55845e-20)
(44.9133 14.717 -1.61222e-18)
(39.8291 13.0375 -9.20843e-19)
(29.5214 9.51003 -2.59625e-18)
(12.9248 3.97775 2.90595e-18)
(2.42413 1.04797 -1.29535e-18)
(-1.48715 0.376912 0)
(-2.34061 0.199396 0)
(-1.35756 0.135331 4.42691e-19)
(40.9813 -0.00187658 1.17414e-18)
(44.3257 -0.182614 4.7748e-19)
(44.4704 0.131231 -5.15567e-19)
(44.6016 0.0541177 1.84765e-20)
(44.7652 0.337778 1.33195e-18)
(44.9737 0.41703 -2.37863e-20)
(45.2242 0.681084 0)
(45.5391 0.893908 -1.09195e-18)
(45.8251 1.16849 -4.01391e-20)
(46.0836 1.47477 -2.51612e-21)
(46.3891 1.79602 1.77655e-18)
(46.7495 2.17085 -9.10109e-19)
(47.093 2.6215 3.96255e-21)
(47.4052 3.08588 5.85853e-19)
(47.7229 3.58092 0)
(48.0225 4.12054 0)
(48.3116 4.69177 9.25337e-19)
(48.5805 5.29843 1.39957e-18)
(48.8104 5.93648 0)
(48.9812 6.60018 -8.25802e-19)
(49.1147 7.28218 -9.4805e-19)
(49.2032 7.97542 -2.8936e-19)
(49.2451 8.6691 1.80665e-19)
(49.242 9.35106 1.19295e-18)
(49.1567 9.97188 4.16548e-19)
(48.9583 10.4869 4.70941e-19)
(48.8779 11.046 -1.52744e-18)
(48.8553 11.6844 -1.11894e-18)
(48.764 12.2223 1.37271e-18)
(48.5709 12.6541 -1.51839e-18)
(48.3676 13.0765 0)
(48.2153 13.501 0)
(48.0656 13.907 2.83336e-20)
(47.8929 14.1413 -1.10101e-18)
(47.8691 14.3812 1.25107e-18)
(47.818 14.6295 2.08321e-18)
(47.7665 14.8383 -7.61684e-19)
(47.8906 15.0477 -1.64778e-18)
(47.9126 15.1463 -1.85114e-18)
(47.7557 15.1768 -1.10523e-18)
(47.2147 15.1265 -1.94754e-20)
(45.6139 14.7011 1.41671e-18)
(41.3734 13.3543 0)
(32.2263 10.2829 9.12149e-19)
(16.8078 5.23295 1.02289e-18)
(4.45825 1.65488 1.13848e-18)
(-0.678727 0.686289 3.81988e-18)
(-2.30654 0.412545 -1.42204e-18)
(-2.32017 0.322571 0)
(-1.15447 0.176487 0)
(40.8431 -0.0150557 1.09723e-20)
(44.3751 -0.245087 -9.06695e-19)
(44.5546 0.0219561 5.31501e-19)
(44.6881 -0.0634648 -1.21845e-18)
(44.8538 0.185644 -7.25221e-19)
(45.1166 0.22993 -1.25958e-21)
(45.3371 0.392507 2.90317e-20)
(45.5976 0.601977 1.01765e-18)
(45.9332 0.798148 8.02336e-20)
(46.289 1.04198 1.00487e-19)
(46.6443 1.35285 -8.84764e-19)
(46.9681 1.68493 -1.32355e-19)
(47.3261 2.02648 -1.326e-18)
(47.6859 2.44326 -1.56807e-18)
(48.0384 2.90776 2.29334e-19)
(48.3817 3.41797 -2.55805e-19)
(48.6872 3.97801 0)
(48.9615 4.57775 -1.4931e-18)
(49.2067 5.21466 0)
(49.4391 5.88606 0)
(49.6333 6.58113 0)
(49.7767 7.3022 -6.39602e-19)
(49.8746 8.02863 2.08503e-18)
(49.9226 8.76284 -1.5554e-18)
(49.9361 9.52283 0)
(49.9903 10.3543 -5.19094e-19)
(49.8856 11.1278 -1.86257e-18)
(49.6388 11.7194 -2.71212e-18)
(49.3434 12.2796 -2.07205e-18)
(49.1204 12.8557 1.43276e-18)
(48.9224 13.3461 -1.72944e-18)
(48.6724 13.7169 9.58075e-19)
(48.4334 13.9377 2.15215e-18)
(48.3303 14.235 0)
(48.1431 14.4849 1.3353e-18)
(48.0164 14.6384 -2.76487e-18)
(48.0852 14.8008 -1.42725e-20)
(48.022 14.9143 1.67495e-18)
(47.8843 14.922 9.5949e-19)
(47.4183 14.9075 0)
(46.092 14.5977 1.25481e-18)
(42.5421 13.512 -1.44127e-18)
(34.2548 10.7998 3.23397e-18)
(19.7289 6.16481 0)
(6.40445 2.3047 -4.03169e-18)
(0.404809 1.07261 1.11981e-18)
(-1.89891 0.79002 -1.25025e-18)
(-2.59374 0.723679 -1.39099e-18)
(-2.23764 0.552777 3.11217e-18)
(-1.01301 0.239177 1.04213e-21)
(40.6232 -0.0936587 -8.1592e-19)
(44.3621 -0.366765 9.26225e-19)
(44.5954 -0.187702 -1.05986e-18)
(44.7752 -0.331688 2.44531e-18)
(44.955 -0.143468 -1.47272e-18)
(45.2047 -0.144428 1.04531e-19)
(45.5403 0.0443384 -1.04648e-18)
(45.8773 0.176491 0)
(46.2091 0.394555 -1.38699e-18)
(46.568 0.639091 1.75494e-18)
(46.947 0.907742 7.73339e-21)
(47.4016 1.24034 -1.39044e-19)
(47.8346 1.65959 1.32156e-18)
(48.2486 2.10191 -9.27653e-20)
(48.6729 2.58888 1.71763e-18)
(49.0804 3.13882 2.73871e-19)
(49.477 3.73271 0)
(49.8522 4.38041 1.48639e-18)
(50.1987 5.07442 3.75404e-18)
(50.4871 5.81023 0)
(50.7014 6.58548 0)
(50.8778 7.3811 0)