/*--------------------------------*- C++ -*----------------------------------*\
| =========                 |                                                 |
| \\      /  F ield         | OpenFOAM: The Open Source CFD Toolbox           |
|  \\    /   O peration     | Version:  v1912                                 |
|   \\  /    A nd           | Website:  www.openfoam.com                      |
|    \\/     M anipulation  |                                                 |
\*---------------------------------------------------------------------------*/
FoamFile
{
    version     2.0;
    format      ascii;
    class       volScalarField;
    location    "0.37";
    object      p;
}
// * * * * * * * * * * * * * * * * * * * * * * * * * * * * * * * * * * * * * //

dimensions      [0 2 -2 0 0 0 0];


internalField   nonuniform List<scalar> 
6600
(
122.964
118.408
116.115
114.721
113.822
113.287
112.785
112.168
111.544
110.992
110.669
110.449
110.2
110.013
109.951
109.904
109.901
109.899
109.964
109.907
109.842
109.84
109.792
109.577
109.132
108.444
107.414
105.945
103.862
101.019
97.2428
92.3642
86.0086
78.0357
67.9056
55.4249
40.2326
21.6853
-0.797467
-28.0013
-60.4789
-98.9341
-144.364
-197.552
-259.703
-331.758
-413.463
-505.599
-613.796
-733.497
120.118
115.511
113.936
112.491
111.246
110.263
109.437
108.607
107.807
107.048
106.389
105.87
105.365
104.712
104.127
103.591
103.018
102.359
101.789
101.146
100.317
99.3157
98.21
96.8744
95.2228
93.0581
90.4494
87.2718
83.3174
78.3508
72.2697
64.8575
55.7274
44.5497
31.0289
14.8283
-4.52987
-27.7095
-55.1364
-87.5114
-125.625
-170.301
-222.394
-282.549
-352.45
-432.839
-523.294
-623.863
-738.659
-864.075
116.262
111.581
110.721
109.245
107.838
106.577
105.427
104.343
103.371
102.536
101.66
100.725
99.8406
98.9301
97.8827
96.7769
95.6583
94.4255
92.9376
91.4196
89.7673
87.7287
85.3966
82.7404
79.7591
76.1736
71.8672
66.7149
60.6513
53.3763
44.7484
34.5089
22.2981
7.74757
-9.31241
-29.5666
-53.4809
-81.4828
-114.083
-151.999
-195.954
-246.899
-305.715
-373.155
-450.222
-538.007
-636.311
-743.952
-861.453
-985.641
111.9
107.188
106.778
104.859
103.35
102.012
100.712
99.4386
98.187
97.045
95.9709
94.7764
93.3754
91.9714
90.4964
88.7971
86.9922
85.1495
82.9567
80.4188
77.7056
74.6544
71.094
67.0141
62.3825
57.1546
51.0353
43.8606
35.4907
25.6969
14.3304
1.065
-14.3813
-32.4809
-53.493
-78.0136
-106.451
-139.374
-177.233
-220.758
-270.723
-327.933
-393.113
-467.051
-550.43
-644.431
-748.884
-861.441
-979.357
-1099.37
107.197
102.296
102.219
99.6421
98.1663
96.7217
95.2364
93.8057
92.3931
90.8745
89.275
87.6267
85.9024
83.9627
81.8792
79.6237
77.0809
74.2534
71.1985
67.7412
63.8346
59.5275
54.68
49.1971
42.9108
35.7514
27.5871
18.3872
7.67046
-4.74612
-18.9991
-35.4766
-54.4035
-76.2067
-101.238
-130.009
-163.044
-200.829
-243.912
-292.848
-348.349
-411.12
-481.872
-561.236
-649.658
-748.241
-856.718
-972.143
-1089.44
-1203.96
102.05
96.9519
97.1718
93.9149
92.6988
91.0709
89.3831
87.6783
85.9167
84.0706
82.0431
79.7906
77.4352
74.9585
72.2014
69.1918
65.8456
62.1479
58.0123
53.472
48.4121
42.7316
36.3687
29.3414
21.3339
12.2126
1.89357
-9.80966
-23.0637
-38.1333
-55.2997
-74.8896
-97.2087
-122.68
-151.751
-184.712
-222.012
-264.313
-312.175
-365.993
-426.413
-494.008
-569.18
-652.438
-744.277
-845.63
-956.347
-1073.4
-1189.15
-1296.29
96.3615
91.2455
91.7152
87.9902
87.0959
85.0075
83.1085
81.1522
78.9862
76.6458
74.1683
71.5345
68.5908
65.3788
61.8435
57.9739
53.6705
48.9158
43.7348
37.995
31.5715
24.4332
16.4384
7.58049
-2.27601
-13.3325
-25.7853
-39.8986
-55.8237
-73.6569
-93.7536
-116.452
-142.167
-171.245
-204.023
-240.844
-282.243
-328.668
-380.607
-438.509
-502.799
-573.905
-652.255
-738.165
-831.861
-934.238
-1045.53
-1162.68
-1275.64
-1373
90.2853
85.2976
85.8531
81.7412
81.2026
78.4612
76.4014
74.1364
71.591
68.8722
65.8817
62.609
59.0815
55.156
50.8308
46.0698
40.8424
35.0116
28.6053
21.5669
13.7623
5.13649
-4.47278
-15.2241
-27.1711
-40.4484
-55.1948
-71.6317
-90.0061
-110.551
-133.58
-159.403
-188.309
-220.637
-256.838
-297.216
-342.076
-391.894
-447.131
-508.12
-575.298
-648.928
-729.134
-816.198
-910.406
-1012.45
-1122.76
-1238.45
-1346.89
-1431.93
83.8377
79.1929
79.534
75.3096
74.7432
71.5544
69.3765
66.6562
63.6942
60.5647
57.1145
53.2312
48.9369
44.2175
38.9856
33.2702
27.0364
20.2015
12.6157
4.19905
-5.09615
-15.3321
-26.6509
-39.1347
-53.0042
-68.3632
-85.3639
-104.216
-125.179
-148.446
-174.27
-202.914
-234.745
-270.063
-309.176
-352.424
-400.218
-452.808
-510.504
-573.627
-642.427
-717.192
-798.149
-885.366
-978.95
-1079.54
-1187.02
-1298.79
-1401.3
-1472.36
76.9866
72.8018
72.8771
68.7104
67.9197
64.3627
62.0639
58.9793
55.5801
51.9617
47.7981
43.224
38.2053
32.6742
26.5403
19.7949
12.4057
4.33422
-4.45379
-14.1505
-24.8299
-36.5866
-49.581
-63.9132
-79.7539
-97.2283
-116.447
-137.547
-160.789
-186.471
-214.841
-246.116
-280.496
-318.261
-359.821
-405.467
-455.348
-509.748
-568.992
-633.275
-702.856
-777.858
-858.301
-944.331
-1036.15
-1134.22
-1238.06
-1344.35
-1438.96
-1495.21
69.9365
66.3836
66.0964
62.2704
61.0418
57.3304
54.6205
51.1533
47.3067
43.0413
38.2995
32.961
27.109
20.6777
13.6294
5.87341
-2.64499
-12.0124
-22.2002
-33.355
-45.5756
-58.9511
-73.4892
-89.4544
-106.937
-126.179
-147.393
-170.699
-196.24
-224.167
-254.693
-288.067
-324.564
-364.421
-407.863
-455.096
-506.427
-562.005
-621.986
-686.546
-755.786
-829.899
-908.985
-992.981
-1081.93
-1176.32
-1275.75
-1375.27
-1460.31
-1502.56
62.8148
60.0291
59.3763
55.8922
54.2262
50.5894
47.4565
43.5438
39.1823
34.2896
28.8343
22.7952
16.1309
8.77398
0.686178
-8.14078
-17.7976
-28.3793
-39.9083
-52.4046
-66.022
-80.9999
-97.302
-115.017
-134.349
-155.406
-178.344
-203.365
-230.681
-260.439
-292.812
-328.004
-366.183
-407.504
-452.236
-500.592
-552.603
-608.457
-668.349
-732.354
-800.579
-873.045
-949.715
-1030.66
-1115.93
-1205.79
-1300.07
-1392.74
-1468.03
-1498.21
56.2821
54.1036
53.0725
49.9367
47.7896
44.0663
40.5641
36.2174
31.3281
25.8922
19.7908
13.0114
5.5224
-2.68775
-11.6999
-21.5696
-32.3338
-44.0892
-56.9882
-71.0375
-86.1668
-102.498
-120.308
-139.591
-160.452
-183.159
-207.786
-234.492
-263.396
-294.717
-328.591
-365.125
-404.486
-446.885
-492.442
-541.225
-593.391
-648.998
-708.148
-770.9
-837.218
-907.172
-980.741
-1057.79
-1138.38
-1222.84
-1310.64
-1396.49
-1464.75
-1485.98
50.4274
48.6433
47.4967
44.6633
42.1603
38.3232
34.37
29.5727
24.2123
18.1962
11.485
4.04792
-4.20968
-13.3053
-23.2374
-34.1104
-45.9558
-58.797
-72.6793
-87.8499
-104.429
-122.343
-141.637
-162.532
-185.074
-209.27
-235.362
-263.483
-293.783
-326.316
-361.253
-398.782
-439.004
-481.967
-527.788
-576.571
-628.323
-683.089
-740.866
-801.673
-865.539
-932.415
-1002.17
-1074.63
-1149.66
-1228.07
-1308
-1384.79
-1444.15
-1463.21
45.5773
44.125
42.8867
40.0942
37.2763
33.408
29.0514
23.8871
18.0799
11.5161
4.19252
-3.91941
-12.8509
-22.6544
-33.39
-45.126
-57.9467
-71.9564
-87.1424
-103.474
-121.081
-140.2
-160.791
-182.85
-206.699
-232.391
-259.857
-289.197
-320.585
-354.233
-390.193
-428.49
-469.176
-512.388
-558.222
-606.632
-657.583
-711.081
-767.157
-825.717
-886.59
-949.748
-1015.07
-1082.29
-1151.05
-1221.68
-1291.33
-1354.81
-1399.57
-1417.43
42.1606
40.8565
39.4507
36.7022
33.6238
29.5332
24.8972
19.4327
13.2302
6.25785
-1.56861
-10.2862
-19.9211
-30.4638
-41.9933
-54.5836
-68.2368
-82.9935
-99.0472
-116.504
-135.315
-155.559
-177.411
-200.859
-225.805
-252.522
-281.162
-311.734
-344.222
-378.62
-415.082
-453.774
-494.793
-538.09
-583.571
-631.295
-681.244
-733.298
-787.272
-843.098
-900.722
-959.976
-1020.6
-1082.05
-1144.42
-1206.2
-1263.78
-1309.86
-1334.31
-1347.92
40.1993
39.0384
37.3832
34.5589
31.2965
26.9954
22.1164
16.3975
9.87893
2.50786
-5.72899
-14.8723
-25.0025
-36.1629
-48.3717
-61.7184
-76.3022
-92.113
-109.096
-127.346
-147.058
-168.243
-190.941
-215.301
-241.497
-269.337
-298.848
-330.164
-363.402
-398.615
-435.795
-474.927
-515.974
-559.038
-604.189
-651.217
-699.99
-750.441
-802.488
-855.854
-910.2
-965.355
-1021.02
-1076.6
-1132.08
-1184.51
-1230.11
-1261.44
-1270.25
-1276.6
39.7798
38.5687
36.7213
33.8474
30.4706
26.1386
21.0357
15.0902
8.32444
0.658148
-7.92464
-17.4896
-28.0605
-39.7121
-52.52
-66.4712
-81.5831
-98.0581
-116.032
-135.187
-155.911
-177.984
-201.801
-227.068
-253.941
-282.67
-313.166
-345.36
-379.25
-414.92
-452.379
-491.677
-532.87
-575.843
-620.454
-666.733
-714.526
-763.619
-813.665
-864.453
-915.817
-967.427
-1018.78
-1069.57
-1118.15
-1161.8
-1196.65
-1217.92
-1226.75
-1228.83
40.904
39.4312
37.5623
34.5131
30.985
26.6181
21.5086
15.4997
8.61256
0.798416
-8.00064
-17.8179
-28.7321
-40.7744
-54.0058
-68.6034
-84.498
-101.619
-120.124
-140.145
-161.802
-184.194
-208.959
-235.308
-263.226
-292.678
-323.84
-356.741
-391.344
-427.525
-465.36
-504.892
-546.04
-588.812
-633.141
-678.845
-725.77
-773.657
-822.349
-871.422
-920.39
-969.048
-1016.72
-1063.4
-1106.78
-1143.75
-1169.24
-1179.77
-1191.11
-1192.19
43.5543
41.4126
39.8665
36.6175
33.1437
28.6193
23.498
17.4644
10.5543
2.71123
-6.15807
-16.0922
-27.1658
-39.4705
-52.9959
-67.7808
-84.0588
-101.871
-121.129
-141.899
-164.267
-188.021
-213.43
-240.401
-269.086
-299.491
-331.436
-364.871
-399.927
-436.692
-474.974
-514.708
-555.966
-598.701
-642.816
-688.186
-734.627
-781.879
-829.461
-877.127
-924.616
-971.396
-1017.37
-1060.58
-1099.25
-1130.73
-1150.17
-1154.3
-1157.3
-1162.33
47.3436
44.7304
43.3171
39.9744
36.739
32.1918
27.1192
21.1234
14.2886
6.48182
-2.33336
-12.2689
-23.3865
-35.7562
-49.5529
-64.7578
-81.336
-99.4307
-119.116
-140.385
-163.337
-188.035
-214.455
-242.39
-271.825
-302.962
-335.801
-370.254
-406.047
-443.131
-481.676
-521.751
-563.252
-606.105
-650.199
-695.467
-741.759
-788.752
-836.139
-883.508
-930.679
-977.082
-1020.98
-1061.61
-1096.71
-1121.15
-1131.84
-1140.44
-1138.58
-1143.07
52.0949
48.9145
47.7084
44.3847
41.3532
36.9837
32.1322
26.2448
19.6011
11.9425
3.27741
-6.53093
-17.5759
-29.9079
-43.5755
-58.8052
-75.6822
-94.1853
-114.424
-136.307
-159.833
-185.156
-212.344
-241.27
-271.8
-303.807
-337.376
-372.377
-408.988
-447.006
-486.228
-526.626
-568.33
-611.387
-655.752
-701.263
-747.778
-795.083
-842.717
-890.325
-937.606
-983.631
-1027.16
-1066.06
-1097.32
-1116.32
-1120.86
-1124.24
-1125.42
-1128.32
57.1566
53.707
52.5665
49.4984
46.6519
42.539
38.1111
32.4617
26.1213
18.7516
10.4086
0.890046
-9.91591
-22.1421
-35.838
-51.006
-67.8119
-86.3159
-106.705
-129.103
-153.344
-179.374
-207.285
-237.051
-268.564
-301.701
-336.474
-372.722
-410.147
-448.774
-488.625
-529.635
-571.794
-615.179
-659.807
-705.689
-752.764
-800.798
-849.456
-898.354
-946.935
-993.675
-1035.9
-1072.65
-1098.31
-1107.81
-1114.89
-1113.88
-1116.31
-1117.76
62.4614
58.718
57.7867
54.7731
52.4184
48.4953
44.7092
39.4863
33.5557
26.5719
18.6615
9.61451
-0.791156
-12.5678
-25.9294
-41.0096
-57.89
-76.5734
-96.9986
-119.549
-144.268
-171.007
-199.79
-230.595
-263.237
-297.476
-333.261
-370.579
-409.242
-449.044
-489.772
-531.419
-574.039
-617.73
-662.729
-709.11
-756.824
-805.818
-855.757
-906.389
-956.183
-1002.87
-1045.42
-1079.88
-1099.87
-1103.55
-1104.71
-1105.81
-1108.66
-1109.83
67.4705
64.2814
63.004
60.6074
58.3617
55.0387
51.4271
46.8239
41.5085
35.0184
27.644
19.3025
9.35189
-2.01171
-14.8736
-29.4545
-45.8786
-64.5034
-85.1622
-107.84
-132.842
-160.1
-189.585
-221.245
-255.081
-290.789
-328.157
-366.967
-407.065
-448.087
-489.933
-532.408
-575.568
-619.588
-664.762
-711.505
-759.914
-809.888
-861.454
-913.997
-965.967
-1014.48
-1056.23
-1084.84
-1094.26
-1101.66
-1098.66
-1100.1
-1102.22
-1103.32
71.497
69.8685
68.5396
66.2938
64.352
61.5051
58.3512
54.2912
49.5118
43.6585
36.696
29.7559
20.354
9.62958
-2.69521
-16.8265
-32.8678
-50.9394
-71.4673
-94.2881
-119.539
-147.423
-177.713
-210.336
-245.255
-282.474
-321.434
-361.814
-403.54
-446.338
-489.62
-533.274
-577.164
-621.36
-666.374
-712.95
-761.749
-812.846
-866.126
-920.597
-974.433
-1024.96
-1066.43
-1089.81
-1093.7
-1093.2
-1093.55
-1094.5
-1095.58
-1096.37
73.942
74.5531
73.606
71.8306
70.235
67.8934
65.2139
61.6964
57.5061
52.3813
46.2603
39.4046
31.2123
21.3775
9.9788
-3.29926
-18.7824
-36.3665
-56.3696
-79.0321
-104.358
-132.463
-163.412
-197.114
-233.32
-272.048
-313.144
-355.869
-399.627
-444.291
-489.434
-534.577
-579.346
-623.887
-668.517
-714.356
-762.623
-814.063
-868.312
-924.848
-982.542
-1037.29
-1075.64
-1087.35
-1095.26
-1090.41
-1089.89
-1088.89
-1088.84
-1088.84
74.1082
77.7739
77.4804
76.7718
75.8027
74.0016
71.8144
68.7707
65.1244
60.7059
55.398
49.2015
41.8439
32.9449
22.5802
10.2346
-4.28045
-21.2326
-40.6956
-62.9722
-88.311
-116.677
-148.146
-182.764
-220.471
-260.806
-303.716
-348.728
-395.186
-442.232
-489.669
-536.804
-583.024
-627.928
-671.888
-715.947
-762.106
-813.096
-868.327
-926.584
-987.494
-1045.43
-1083.94
-1089.53
-1089.41
-1087.47
-1085.35
-1082.96
-1081.53
-1080.83
72.2075
80.4069
80.4047
81.0399
80.8336
79.7503
78.0596
75.5063
72.3316
68.4342
63.7637
58.2926
51.8748
44.0563
34.6201
23.5735
10.0412
-5.82232
-24.4705
-46.2228
-71.2135
-99.6994
-131.675
-167.107
-206.13
-248.563
-294.18
-341.761
-390.822
-440.9
-491.012
-540.809
-588.948
-634.808
-678.136
-719.75
-761.642
-809.076
-863.785
-926.133
-994.496
-1053.26
-1082.02
-1094.54
-1085.42
-1083.88
-1081.08
-1077.84
-1075.2
-1073.66
60.2119
80.5202
81.9004
84.1355
85.4039
84.9499
83.8628
81.7425
78.9813
75.4737
71.2049
66.2572
60.4583
53.7464
45.5195
35.5122
23.1233
8.54421
-9.23625
-30.5813
-55.4134
-83.6908
-116.043
-152.558
-192.832
-236.998
-284.781
-335.797
-388.106
-441.328
-495.135
-547.93
-598.545
-646.059
-689.281
-727.256
-764.048
-804.249
-851.088
-907.173
-972.174
-1035.88
-1069.92
-1088.22
-1081.64
-1081.39
-1080.95
-1077.49
-1074.23
-1071.97
149.52
145.051
143.029
141.723
140.929
140.581
140.505
140.646
141.005
141.593
142.42
143.518
144.855
146.412
148.226
150.275
152.492
154.845
157.355
160.131
163.189
166.456
169.902
173.287
176.624
180.005
183.45
186.862
190.146
193.226
195.999
198.549
200.56
202.095
202.848
202.257
200.132
196.31
190.424
182.021
170.649
155.745
136.679
112.768
83.3261
47.6627
5.14776
-43.5789
-104.149
-166.993
146.717
142.429
140.904
139.533
138.537
138
137.707
137.616
137.743
138.1
138.737
139.612
140.647
141.847
143.246
144.885
146.674
148.556
150.508
152.564
154.773
157.086
159.477
162.094
164.642
166.982
169.148
171.138
172.944
174.322
175.103
175.401
175.065
173.881
171.794
168.353
163.01
155.586
145.846
133.32
117.495
97.8902
73.7238
44.371
9.20811
-32.4832
-81.2841
-136.52
-201.835
-269.288
143.11
138.89
137.895
136.523
135.551
134.92
134.487
134.284
134.3
134.518
134.962
135.634
136.486
137.429
138.425
139.524
140.826
142.241
143.711
145.203
146.675
148.186
149.506
150.666
151.903
153.095
153.998
154.478
154.508
154.137
153.09
151.169
148.295
144.284
139.083
132.367
123.653
112.583
98.8802
82.1022
61.6833
37.3474
8.03714
-26.6035
-67.1914
-114.431
-168.886
-229.709
-297.27
-364.402
139.056
134.848
134.339
132.915
131.961
131.286
130.788
130.506
130.467
130.646
130.988
131.45
132.072
132.831
133.686
134.488
135.228
136.002
136.782
137.562
138.245
138.713
139.168
139.32
139.13
138.718
138.039
136.971
135.279
132.794
129.472
125.312
120.01
113.123
104.702
94.5994
82.2751
67.4148
49.6895
28.6563
3.82773
-25.371
-59.4567
-98.9004
-144.274
-196.276
-255.147
-319.555
-388.039
-452.547
134.576
130.334
130.26
128.637
127.813
127.107
126.599
126.261
126.141
126.199
126.394
126.708
127.08
127.467
127.934
128.521
129.003
129.269
129.39
129.325
129.273
128.9
127.966
126.829
125.36
123.443
121.003
117.959
114.278
109.784
104.298
97.5875
89.5526
79.9472
68.4385
54.8878
39.0204
20.422
-1.24937
-26.4107
-55.4814
-88.9765
-127.225
-170.662
-219.832
-275.28
-337.065
-403.468
-471.907
-532.602
129.792
125.453
125.599
123.699
122.941
122.17
121.6
121.229
121.026
120.96
120.956
121.005
121.14
121.29
121.34
121.269
121.236
121.019
120.528
119.68
118.394
117.129
115.448
113.024
110.042
106.502
102.316
97.4453
91.5752
84.7138
76.7601
67.5938
56.8902
44.3697
29.8802
13.1277
-6.1584
-28.2378
-53.4771
-82.323
-115.119
-152.132
-193.679
-240.119
-291.813
-349.227
-412.42
-479.631
-547.043
-602.512
124.512
120.193
120.315
118.224
117.515
116.735
116.072
115.546
115.151
114.847
114.603
114.347
114.035
113.695
113.358
112.802
112.002
111.076
109.895
108.474
106.273
103.413
100.385
96.8083
92.5069
87.3624
81.2967
74.2943
66.438
57.441
47.1244
35.3033
21.9046
6.69454
-10.6833
-30.4392
-52.805
-78.0247
-106.363
-138.178
-173.785
-213.417
-257.253
-305.56
-358.599
-416.675
-480.054
-546.918
-611.894
-660.458
118.746
114.307
114.492
112.264
111.475
110.598
109.882
109.272
108.723
108.168
107.576
106.98
106.316
105.465
104.356
103.117
101.552
99.6521
97.3089
94.6567
91.7855
88.0546
83.5543
78.4006
72.5029
65.7786
58.0867
49.2167
39.0882
27.6796
14.9758
0.781214
-15.1763
-33.05
-52.9749
-75.2732
-100.23
-128.025
-158.831
-192.895
-230.44
-271.64
-316.719
-365.815
-419.114
-476.926
-539.194
-604.115
-665.418
-705.723
112.162
108.157
108.062
105.918
105.192
104.163
103.244
102.426
101.645
100.858
99.9534
98.871
97.6408
96.283
94.6572
92.6415
90.2391
87.4844
84.2299
80.2326
75.7798
70.7473
64.9045
58.2524
50.6744
42.0862
32.401
21.6758
9.65628
-3.72901
-18.6732
-35.3107
-53.6217
-73.7978
-96.1147
-120.654
-147.628
-177.281
-209.789
-245.284
-283.921
-325.823
-371.117
-419.979
-472.584
-529.225
-589.56
-651.261
-707.235
-738.238
105.288
101.328
101.105
99.0191
98.2525
97.2012
96.2247
95.2525
94.2198
93.0927
91.8626
90.4754
88.772
86.6461
84.2686
81.5217
78.2011
74.3003
69.9208
64.9289
59.13
52.6763
45.309
36.9736
27.6665
17.3543
5.90724
-6.88406
-21.0013
-36.5498
-53.5318
-72.0835
-92.432
-114.639
-138.79
-165.101
-193.702
-224.698
-258.202
-294.37
-333.308
-375.101
-419.843
-467.602
-518.552
-573.074
-630.704
-688.276
-738.133
-761.026
96.9987
93.7953
93.5307
91.5393
90.7565
89.5841
88.5053
87.4401
86.2715
84.9065
83.2638
81.3719
79.2472
76.7405
73.6297
70.0793
66.0534
61.3054
55.7983
49.4795
42.2316
34.1748
25.2695
15.3306
4.2343
-8.03183
-21.4186
-35.9918
-51.8713
-69.1888
-88.1117
-108.676
-130.809
-154.653
-180.353
-207.908
-237.459
-269.149
-303.088
-339.309
-377.884
-418.878
-462.302
-508.256
-556.852
-608.268
-662.302
-715.646
-760.206
-777.152
88.0171
85.488
85.1802
83.4366
82.7394
81.5667
80.4446
79.2328
77.8446
76.2879
74.4986
72.3117
69.6034
66.5275
62.8692
58.4881
53.4647
47.7503
41.317
33.9644
25.6339
16.1417
5.58514
-6.00482
-18.7004
-32.6188
-47.8862
-64.4291
-82.2746
-101.462
-121.975
-143.954
-167.562
-192.746
-219.537
-248.021
-278.211
-310.15
-343.909
-379.596
-417.195
-456.774
-498.384
-541.849
-587.346
-635.191
-684.364
-732.453
-771.766
-786.14
78.4903
76.6945
76.5134
75.0617
74.3572
73.1535
72.04
70.8025
69.2693
67.378
65.1739
62.701
59.8012
56.2397
52.1201
47.2961
41.6646
35.1376
27.5348
18.9763
9.37204
-1.35778
-13.2902
-26.445
-40.8373
-56.4666
-73.3308
-91.5301
-111.011
-131.798
-153.991
-177.552
-202.356
-228.511
-256.073
-285.023
-315.38
-347.161
-380.41
-415.111
-451.302
-488.92
-527.989
-568.604
-610.5
-653.796
-696.947
-737.301
-767.365
-780.281
68.7592
67.4326
67.5137
66.3949
65.8896
64.7297
63.5533
62.2117
60.6443
58.7689
56.4249
53.5278
50.1554
46.2003
41.5399
36.086
29.8425
22.6633
14.3654
4.97916
-5.63171
-17.507
-30.675
-45.1535
-61.0289
-78.2827
-96.8632
-116.736
-137.945
-160.373
-183.896
-208.589
-234.515
-261.527
-289.602
-318.756
-349.017
-380.337
-412.668
-446.069
-480.417
-515.733
-551.983
-588.932
-627.107
-664.97
-700.138
-728.579
-744.994
-755.377
59.0002
58.1639
58.2687
57.3982
57.0952
56.1887
55.2205
53.8777
52.1217
50.0705
47.6962
44.8113
41.2224
36.9949
32.0589
26.3022
19.5682
11.6892
2.69345
-7.62974
-19.1957
-32.1401
-46.4078
-62.169
-79.3918
-97.991
-118.041
-139.456
-162.118
-185.989
-211.054
-237.092
-263.952
-291.668
-320.157
-349.36
-379.262
-409.88
-441.166
-472.981
-505.382
-538.104
-571.099
-604.395
-637.484
-669.035
-697.099
-717.153
-724.666
-730.02
48.9675
48.8194
49.1375
48.5258
48.3241
47.5393
46.7841
45.7699
44.3215
42.3605
39.8599
36.8704
33.2977
28.941
23.7056
17.6138
10.4794
2.30419
-7.05441
-17.8117
-30.0806
-43.8046
-59.0762
-76.0651
-94.5901
-114.691
-136.27
-159.295
-183.652
-209.095
-235.421
-262.58
-290.467
-318.892
-347.778
-377.042
-406.666
-436.558
-466.637
-496.91
-527.124
-557.305
-587.331
-617.202
-645.654
-671.302
-692.491
-707.178
-715.171
-716.494
39.0215
39.5718
39.9988
39.7829
39.896
39.3244
38.6862
37.7155
36.4757
34.9012
32.7899
30.0085
26.5763
22.4443
17.4482
11.3935
4.07279
-4.46462
-14.338
-25.5676
-38.4271
-52.8133
-68.9818
-86.862
-106.537
-127.983
-151.049
-175.579
-201.469
-228.586
-256.687
-285.419
-314.524
-343.832
-373.173
-402.466
-431.664
-460.87
-490.033
-518.815
-547.233
-575.212
-602.667
-629.07
-653.77
-675.596
-692.103
-700.43
-706.191
-706.956
29.0371
30.6434
31.03
31.1243
31.5293
31.3594
31.1568
30.5117
29.4487
28.0368
26.255
23.9375
20.8833
17.0079
12.2967
6.57637
-0.227064
-8.4642
-18.2095
-29.5778
-42.5818
-57.5538
-74.5056
-93.3486
-114.203
-136.968
-161.623
-188.028
-215.906
-244.905
-274.707
-305.067
-335.664
-366.168
-396.368
-426.127
-455.397
-484.03
-512.133
-539.885
-566.984
-593.134
-618.226
-641.956
-663.785
-681.579
-692.906
-699.935
-701.469
-702.653
19.1301
21.8058
22.3142
22.8696
23.4469
23.4688
23.5249
23.2793
22.7401
21.8112
20.4185
18.5741
16.1875
13.0882
9.0732
3.9071
-2.39168
-10.098
-19.4395
-30.5904
-43.7031
-58.7374
-75.7925
-95.299
-117.129
-141.199
-167.383
-195.517
-225.446
-256.833
-289.249
-322.076
-354.809
-387.063
-418.503
-448.904
-478.196
-506.706
-534.365
-561.062
-587.138
-611.779
-634.568
-655.711
-674.387
-688.828
-696.13
-699.836
-700.595
-701.008
9.8243
13.1308
13.7356
14.8122
15.754
16.1185
16.4926
16.4829
16.2845
15.8808
15.0804
13.7648
11.9267
9.50133
6.37845
2.41376
-2.78144
-9.33078
-17.5401
-27.7141
-40.1112
-54.9423
-72.2688
-92.134
-114.643
-139.854
-167.761
-198.098
-230.482
-264.578
-299.807
-335.635
-371.325
-406.09
-439.438
-471.131
-501.257
-529.749
-557.058
-583.28
-607.908
-630.599
-651.558
-669.916
-684.45
-693.824
-699.991
-701.152
-701.74
-701.657
1.25599
5.09482
5.72035
7.14233
8.26482
8.86971
9.59041
9.95052
10.1218
10.1438
9.93704
9.40507
8.47511
7.00178
4.82687
1.91587
-2.00288
-7.22217
-14.0174
-22.7463
-33.8111
-47.6445
-64.3033
-83.768
-106.391
-132.458
-161.678
-194.072
-229.297
-266.766
-305.869
-345.733
-385.368
-423.859
-460.339
-494.177
-525.118
-553.961
-581.245
-606.482
-629.353
-650.442
-669.318
-684.371
-693.724
-699.796
-702.666
-703.845
-704.326
-704.093
-5.96584
-2.49175
-1.58256
0.117387
1.34315
2.10419
3.0295
3.5766
4.07597
4.51502
4.70963
4.71953
4.57324
4.18537
3.34259
1.81951
-0.47892
-3.86785
-8.70655
-15.3656
-24.3097
-36.1143
-51.6664
-70.8247
-93.0705
-119.031
-149.52
-183.75
-221.629
-262.745
-306.338
-351.403
-396.457
-440.244
-481.154
-518.02
-551.003
-580.359
-606.829
-630.89
-652.473
-671.739
-687.539
-697.958
-703.668
-706.245
-707.522
-708.337
-708.62
-708.333
-12.7353
-9.38148
-8.28605
-6.70141
-5.38877
-4.43966
-3.26776
-2.63103
-1.88195
-1.15615
-0.506104
0.162807
0.724874
1.20506
1.55085
1.5199
0.899055
-0.568518
-3.20724
-7.45734
-13.8439
-22.9199
-35.3916
-52.0138
-73.5132
-99.3447
-130.051
-165.98
-206.574
-251.529
-300.153
-351.273
-403.528
-454.463
-501.902
-544.17
-580.068
-610.167
-635.878
-657.835
-677.387
-693.882
-704.927
-711.199
-714.058
-714.452
-714.516
-714.434
-714.264
-713.907
-19.2308
-16.0514
-14.538
-13.1578
-11.764
-10.9494
-9.72328
-8.92232
-7.92421
-7.14105
-6.26877
-5.1724
-3.99453
-2.73036
-1.31958
0.103577
1.34456
2.13608
2.09936
0.77975
-2.38343
-8.03067
-16.8784
-30.2243
-49.095
-73.713
-103.345
-139.638
-182.604
-231.42
-285.723
-344.233
-404.766
-465.098
-522.408
-573.216
-614.174
-645.144
-668.945
-687.801
-703.39
-714.829
-721.842
-724.974
-725.24
-724.14
-722.544
-721.125
-720.242
-719.648
-24.7688
-21.5729
-20.4982
-19.1434
-17.8267
-17.1251
-16.0183
-15.2238
-14.1492
-13.2097
-12.1332
-10.8846
-9.34911
-7.55834
-5.4002
-2.82554
0.00893942
2.89701
5.49551
7.34734
7.77332
5.94177
1.07098
-7.93974
-22.2808
-43.2181
-71.0946
-106.437
-150.04
-201.75
-261.014
-327.178
-398.403
-471.293
-541.75
-604.602
-654.735
-688.85
-708.98
-721.771
-729.619
-734.091
-737.515
-738.138
-736.313
-733.33
-730.038
-727.288
-725.539
-724.529
-29.3951
-26.3632
-25.8231
-24.2605
-23.1722
-22.5397
-21.677
-21.2531
-20.4583
-19.66
-18.5926
-17.3956
-15.8698
-13.8312
-11.2603
-7.91342
-3.72218
1.12882
6.36946
11.5722
16.0996
19.0701
19.3652
15.8518
7.02764
-9.0786
-33.51
-66.297
-108.661
-161.672
-225.287
-299.064
-381.224
-468.492
-556.448
-638.543
-703.844
-743.375
-760.579
-761.018
-755.221
-753.612
-752.348
-750.411
-746.674
-741.945
-737.077
-732.635
-729.831
-728.283
-33.9457
-30.0716
-30.4174
-28.5627
-28.0136
-27.5421
-26.8171
-26.4916
-26.0451
-25.7405
-24.9594
-24.0452
-22.8147
-20.9874
-18.4467
-14.9331
-10.0695
-3.85019
3.52784
11.7339
20.2799
28.2359
34.2907
37.1316
35.0677
26.072
8.01902
-20.1107
-59.4059
-111.219
-176.545
-256.257
-349.929
-454.741
-565.445
-672.394
-760.993
-816.402
-827.495
-808.095
-788.867
-776.924
-770.718
-765.058
-758.976
-752.371
-745.716
-739.6
-735.652
-733.434
-37.7677
-31.607
-35.0854
-31.8045
-32.1356
-32.268
-32.0003
-31.9019
-31.7393
-31.7543
-31.432
-30.9682
-30.2689
-29.106
-27.1418
-23.9815
-19.1213
-12.2152
-3.21554
7.62121
20.0079
33.2448
45.7874
56.0271
61.9224
60.8611
50.9009
30.0407
-3.41796
-51.4412
-116.05
-199.126
-302.145
-423.59
-559.052
-697.911
-823.842
-903.35
-907.448
-869.741
-832.19
-809.483
-794.803
-783.743
-774.43
-765.75
-756.989
-749
-743.878
-741.198
-41.0082
-32.6676
-37.6655
-35.2893
-35.5554
-36.1453
-36.4523
-36.8168
-37.0582
-37.4629
-37.5775
-37.4731
-37.3188
-36.9685
-35.9876
-33.6633
-29.6055
-23.004
-13.2809
-0.904772
13.852
30.9097
49.756
67.7977
83.5517
93.1207
92.5542
80.6545
56.1017
15.8451
-43.876
-126.463
-235.385
-373.318
-536.502
-716.431
-894.314
-1003.94
-990.885
-935.416
-883.479
-848.639
-823.036
-804.792
-790.615
-779.293
-768.664
-759.295
-753.62
-751.023
-60.9961
-34.8477
-38.7143
-38.7011
-39.347
-40.3951
-41.3166
-41.9008
-42.637
-43.6733
-44.0316
-44.0316
-44.4703
-45.2405
-45.434
-44.79
-41.8458
-36.2027
-26.574
-13.3765
2.54354
22.4871
48.6175
76.3927
99.8742
119.968
131.797
131.828
116.978
84.3486
31.1379
-47.3848
-157.217
-305.388
-491.702
-707.245
-920.985
-1064.23
-1076.78
-983.965
-928.177
-883.441
-850.13
-825.445
-807.088
-791.963
-779.556
-769.217
-763.671
-761.627
-55.2444
-32.7144
-35.9207
-38.7178
-40.7378
-42.0038
-43.4291
-44.6757
-45.814
-47.0404
-48.4544
-49.741
-51.3039
-53.2522
-54.7856
-56.2514
-56.356
-52.7638
-44.6765
-31.1082
-12.4124
10.4251
39.5815
77.198
112.669
142.882
167.89
179.839
175.309
150.783
103.923
29.5739
-80.0727
-234.551
-443.414
-703.497
-985.105
-1132.7
-1120.69
-1014.16
-947.595
-898.978
-862.678
-834.84
-813.243
-797.143
-784.702
-775.835
-772.435
-772.51
-47.4343
-38.2556
-39.4521
-41.028
-43.1999
-44.9774
-46.1987
-47.7679
-49.5465
-51.3763
-53.3475
-55.681
-58.5155
-61.6576
-64.7864
-67.8075
-69.7457
-66.7177
-56.7333
-41.1425
-21.4711
7.51181
48.1182
94.0814
139.259
177.423
210.62
230.095
229.226
205.507
153.699
68.2509
-59.9681
-239.416
-479.814
-774.421
-1043.78
-1145.93
-1071.02
-990.022
-931.678
-888.979
-856.481
-831.173
-811.787
-797.355
-786.564
-780.09
-779.834
-782.44
-41.7607
-42.5259
-45.0919
-47.2883
-48.9607
-50.4969
-52.0651
-53.9303
-55.4733
-57.5751
-60.3939
-64.3655
-68.5754
-73.5634
-78.527
-83.0809
-85.3693
-82.435
-72.3193
-53.6712
-23.9418
15.1743
64.2518
117.04
173.754
228.551
269.871
293.065
291.203
260.332
193.324
81.3056
-84.2773
-305.933
-568.64
-853.92
-1055.52
-1099.51
-1033.54
-968.323
-919.83
-882.43
-852.59
-828.714
-809.936
-796.483
-787.8
-784.372
-787.747
-793.023
-42.5894
-46.9795
-51.332
-54.1858
-57.0821
-59.9236
-61.6073
-62.9987
-65.2593
-68.2322
-71.9142
-77.5368
-84.3117
-91.7231
-99.9627
-108.284
-113.966
-112.384
-98.0957
-70.2715
-30.7664
11.0824
68.078
144.292
223.885
297.766
348.203
369.48
356.417
297.593
192.065
38.6529
-162.589
-405.454
-665.458
-895.737
-1027.57
-1046.19
-1000.44
-951.304
-911.319
-877.739
-849.55
-826.876
-809.463
-797.851
-792.005
-792.06
-799.389
-807.707
-46.2032
-52.6467
-58.9328
-63.3997
-66.7545
-68.8956
-72.0078
-74.5406
-77.1679
-81.6096
-89.0514
-97.2049
-107.351
-119.597
-133.659
-148.188
-158.826
-157.197
-140.168
-113.429
-77.0767
-8.47267
77.6715
178.048
274.585
354.758
394.708
392.391
349.378
247.888
99.9676
-81.4359
-297.834
-535.019
-755.887
-922.194
-1010.98
-1022.35
-991.285
-950.756
-912.646
-879.406
-851.861
-830.394
-814.885
-805.814
-803.33
-807.286
-818.686
-830.382
-53.4431
-60.5946
-68.2982
-72.7013
-76.7559
-80.0744
-83.52
-85.8432
-91.1748
-98.2274
-108.269
-122.1
-138.961
-158.389
-181.433
-205.451
-224.241
-235.643
-234.42
-201.796
-130.747
-30.4282
82.0215
199.072
307.669
362.622
360.089
313.122
221.172
84.0042
-89.7342
-283.583
-486.77
-687.515
-857.486
-977.089
-1037.37
-1039.79
-1011.16
-973.397
-934.763
-899.313
-869.68
-847.103
-832.03
-824.649
-824.997
-833.134
-848.996
-864.269
-68.1085
-76.4133
-83.4385
-88.2141
-90.5661
-91.1473
-94.2575
-98.4451
-105.655
-117.058
-132.077
-152.4
-178.53
-210.466
-248.856
-294.678
-342.511
-375.382
-368.366
-305.965
-191.785
-63.3347
71.1522
171.408
224.415
233.07
186.141
96.2826
-29.2094
-179.292
-354.991
-539.613
-714.755
-871.073
-994.595
-1075
-1107.11
-1099.51
-1068.01
-1027.75
-985.257
-945.391
-911.573
-885.834
-869.243
-861.869
-863.469
-874.209
-893.698
-912.015
-84.2488
-102.912
-105.275
-105.987
-107.094
-109.641
-108.296
-111.864
-121.614
-136.891
-160.027
-191.339
-230.463
-282.137
-354.414
-440.415
-514.074
-556.528
-531.118
-413.933
-260.183
-108.634
-11.0128
41.4024
43.7954
0.136044
-86.3112
-206.754
-351.383
-507.227
-661.676
-827.33
-968.962
-1084.42
-1166.5
-1209.09
-1216.27
-1196.32
-1157.75
-1110.77
-1062.3
-1017.09
-978.418
-948.641
-929.29
-920.833
-922.933
-935.035
-956.695
-978.076
-133.17
-154.326
-138.034
-131.849
-125.132
-122.193
-122.559
-129.449
-142.017
-163.33
-195.296
-240.624
-302.706
-388.693
-504.932
-629.135
-740.421
-780.494