/*--------------------------------*- C++ -*----------------------------------*\
| =========                 |                                                 |
| \\      /  F ield         | OpenFOAM: The Open Source CFD Toolbox           |
|  \\    /   O peration     | Version:  v1912                                 |
|   \\  /    A nd           | Website:  www.openfoam.com                      |
|    \\/     M anipulation  |                                                 |
\*---------------------------------------------------------------------------*/
FoamFile
{
    version     2.0;
    format      ascii;
    class       surfaceScalarField;
    location    "0.37";
    object      phi;
}
// * * * * * * * * * * * * * * * * * * * * * * * * * * * * * * * * * * * * * //

dimensions      [0 3 -1 0 0 0 0];
oriented        oriented;


internalField   nonuniform List<scalar> 
13060
(
0.00598387
0.988219
-0.994203
0.00797618
0.94545
-0.947443
0.00903493
0.900004
-0.901062
0.00981643
0.856845
-0.857626
0.0103895
0.816298
-0.816871
0.0108371
0.777945
-0.778393
0.0113253
0.741276
-0.741764
0.0119795
0.706124
-0.706778
0.0129264
0.672557
-0.673504
0.0140508
0.640574
-0.641698
0.0151822
0.609905
-0.611036
0.0162239
0.580558
-0.5816
0.0173573
0.552527
-0.55366
0.0184943
0.525858
-0.526995
0.0194463
0.500495
-0.501447
0.0202228
0.47627
-0.477047
0.0209062
0.453188
-0.453872
0.0212984
0.431456
-0.431848
0.0214263
0.410659
-0.410787
0.0213973
0.390718
-0.390689
0.0214228
0.371808
-0.371834
0.0213934
0.35414
-0.354111
0.0211867
0.3375
-0.337293
0.0208499
0.321606
-0.321269
0.0204693
0.306609
-0.306228
0.0198985
0.292555
-0.291984
0.0191489
0.279121
-0.278372
0.0183143
0.2664
-0.265565
0.0175121
0.254476
-0.253674
0.0167115
0.243176
-0.242376
0.015846
0.232517
-0.231652
0.0148999
0.222489
-0.221543
0.0138575
0.212988
-0.211946
0.0127417
0.203926
-0.20281
0.0115613
0.195447
-0.194267
0.0103927
0.187507
-0.186338
0.00930756
0.180023
-0.178938
0.00827584
0.172897
-0.171865
0.00729085
0.166063
-0.165078
0.00630058
0.159712
-0.158722
0.00523411
0.153723
-0.152656
0.00411607
0.148021
-0.146903
0.00296069
0.14259
-0.141435
0.00191175
0.137381
-0.136332
0.000920336
0.132395
-0.131404
9.90457e-05
0.127793
-0.126971
-0.000810986
0.122835
-0.121925
-0.00176605
0.119255
-0.1183
-0.00183769
0.110403
-0.110331
0.079128
-0.0809656
0.00569333
0.982526
0.00674645
0.944397
0.00723408
0.899516
0.00752233
0.856557
0.00786505
0.815955
0.00845896
0.777351
0.00931192
0.740423
0.0101622
0.705273
0.0109191
0.6718
0.011728
0.639765
0.0126165
0.609016
0.0134681
0.579707
0.0141741
0.551821
0.0148119
0.525221
0.0154637
0.499843
0.0159964
0.475738
0.0164699
0.452715
0.0170245
0.430901
0.0174846
0.410199
0.0177196
0.390483
0.0177808
0.371747
0.0177634
0.354158
0.0175856
0.337678
0.017172
0.32202
0.0166793
0.307101
0.0161361
0.293098
0.0155526
0.279705
0.0148695
0.267083
0.014078
0.255267
0.0131325
0.244122
0.0121148
0.233535
0.0110626
0.223541
0.0100407
0.21401
0.00903552
0.204931
0.00804868
0.196434
0.0070447
0.188511
0.00598944
0.181078
0.00485745
0.174029
0.00373498
0.167186
0.00263736
0.16081
0.00161767
0.154742
0.000744165
0.148895
1.02891e-05
0.143324
-0.000790776
0.138182
-0.00153667
0.133141
-0.0021884
0.128444
-0.00284036
0.123487
-0.0030118
0.119427
-0.00237107
0.109762
0.0767569
0.00568763
0.976838
0.00671255
0.943372
0.00701166
0.899217
0.00701859
0.85655
0.00694966
0.816024
0.00703396
0.777267
0.00737993
0.740077
0.0080492
0.704604
0.00894068
0.670909
0.00985729
0.638848
0.0105912
0.608283
0.0113939
0.578904
0.01224
0.550975
0.0129806
0.52448
0.01356
0.499264
0.0140241
0.475273
0.0142359
0.452503
0.0142101
0.430927
0.0140116
0.410398
0.0137192
0.390776
0.0133381
0.372128
0.0129218
0.354574
0.0124868
0.338113
0.011988
0.322519
0.0113409
0.307749
0.0105323
0.293906
0.00958357
0.280654
0.00861328
0.268053
0.00774043
0.25614
0.00691904
0.244943
0.00607437
0.23438
0.00521165
0.224404
0.00432667
0.214895
0.00332701
0.205931
0.00233232
0.197428
0.00137848
0.189465
0.000561388
0.181895
-0.000125861
0.174716
-0.00083104
0.167891
-0.00146285
0.161442
-0.00209259
0.155372
-0.00275514
0.149557
-0.00338402
0.143953
-0.00382636
0.138625
-0.00415813
0.133473
-0.00435658
0.128643
-0.00448033
0.123611
-0.00399044
0.118937
-0.00282829
0.1086
0.0739286
0.00445211
0.972386
0.00440946
0.943415
0.0042651
0.899361
0.00427902
0.856536
0.00453918
0.815764
0.00507879
0.776727
0.00567491
0.73948
0.00618467
0.704094
0.00672639
0.670367
0.00738097
0.638194
0.00803627
0.607627
0.00843424
0.578506
0.00876577
0.550643
0.00920003
0.524046
0.0095786
0.498885
0.00980294
0.475049
0.0100376
0.452268
0.0102611
0.430703
0.0103076
0.410351
0.0101744
0.390909
0.0098931
0.372409
0.00949275
0.354974
0.00893979
0.338666
0.00826372
0.323195
0.00759501
0.308417
0.00701438
0.294487
0.006349
0.281319
0.00556066
0.268842
0.00468275
0.257018
0.003716
0.24591
0.00270463
0.235391
0.00168446
0.225424
0.000744381
0.215835
-9.83534e-05
0.206774
-0.00095325
0.198283
-0.00178893
0.1903
-0.00265033
0.182756
-0.00353311
0.175599
-0.00436127
0.168719
-0.00511242
0.162193
-0.00569761
0.155957
-0.00608194
0.149942
-0.00630841
0.144179
-0.00641159
0.138728
-0.00639603
0.133458
-0.00623303
0.12848
-0.00598961
0.123367
-0.00512432
0.118071
-0.0034245
0.1069
0.0705041
0.00431923
0.968067
0.0043263
0.943408
0.00406844
0.899619
0.00379512
0.856809
0.00372072
0.815838
0.00383826
0.77661
0.00406669
0.739252
0.00450692
0.703654
0.0050323
0.669842
0.00549267
0.637733
0.00608306
0.607037
0.00676109
0.577828
0.00731884
0.550086
0.00763905
0.523725
0.00783392
0.49869
0.00787043
0.475013
0.0076298
0.452509
0.00723332
0.4311
0.00680731
0.410777
0.00618898
0.391527
0.00542234
0.373176
0.00477026
0.355626
0.00414952
0.339287
0.00340225
0.323942
0.00249427
0.309325
0.00146796
0.295513
0.00039723
0.28239
-0.000643583
0.269883
-0.0016023
0.257977
-0.00247631
0.246784
-0.00331211
0.236227
-0.00412224
0.226234
-0.00493697
0.21665
-0.00579303
0.20763
-0.00663448
0.199125
-0.00739183
0.191058
-0.00799764
0.183362
-0.00843013
0.176031
-0.00874772
0.169037
-0.00893365
0.162379
-0.0090663
0.15609
-0.00918345
0.150059
-0.0091954
0.144191
-0.00902104
0.138554
-0.00864474
0.133081
-0.00804148
0.127876
-0.00738136
0.122707
-0.00617885
0.116869
-0.00402497
0.104747
0.0664791
0.00325215
0.964815
0.00242793
0.944232
0.00180067
0.900246
0.00172614
0.856884
0.00190596
0.815659
0.0022163
0.776299
0.00250154
0.738967
0.00275636
0.703399
0.00310452
0.669494
0.0034771
0.637361
0.00365808
0.606856
0.00376055
0.577726
0.00386092
0.549985
0.00395002
0.523636
0.00392478
0.498715
0.00385842
0.475079
0.0037463
0.452621
0.00353193
0.431314
0.00321734
0.411092
0.00286997
0.391875
0.00224661
0.373799
0.00142903
0.356444
0.000624542
0.340091
-0.000196298
0.324763
-0.00101904
0.310148
-0.00179377
0.296288
-0.00253817
0.283134
-0.00333101
0.270675
-0.00423291
0.258879
-0.00522537
0.247776
-0.00625873
0.23726
-0.00725472
0.22723
-0.00815994
0.217555
-0.00893107
0.208401
-0.00958742
0.199781
-0.0101644
0.191635
-0.0107253
0.183923
-0.0112486
0.176555
-0.0117011
0.169489
-0.0120326
0.16271
-0.0121439
0.156201
-0.012001
0.149916
-0.0116745
0.143865
-0.0112146
0.138094
-0.0106059
0.132473
-0.00982221
0.127093
-0.0089554
0.12184
-0.00740964
0.115323
-0.0046447
0.101982
0.0618344
0.00345927
0.961355
0.00296263
0.944729
0.00238729
0.900822
0.00195978
0.857311
0.00176426
0.815854
0.00161943
0.776444
0.00161738
0.738969
0.0017744
0.703242
0.00198354
0.669284
0.00230739
0.637037
0.0026935
0.60647
0.00294115
0.577478
0.00297714
0.549949
0.00285821
0.523755
0.00263578
0.498938
0.00223697
0.475478
0.00163751
0.453221
0.000933917
0.432018
8.56534e-05
0.41194
-0.000866792
0.392827
-0.00179327
0.374726
-0.0027207
0.357371
-0.00361206
0.340983
-0.00458213
0.325733
-0.00566768
0.311233
-0.00684601
0.297466
-0.00806432
0.284353
-0.00923568
0.271847
-0.0102692
0.259912
-0.0111463
0.248653
-0.0119312
0.238045
-0.0126156
0.227914
-0.0132755
0.218215
-0.0139223
0.209048
-0.0145598
0.200419
-0.0150785
0.192153
-0.0153962
0.184241
-0.0155067
0.176665
-0.0154589
0.169441
-0.0152491
0.1625
-0.0149463
0.155898
-0.0146047
0.149574
-0.0141434
0.143404
-0.0134824
0.137433
-0.0126536
0.131644
-0.0116318
0.126071
-0.0104017
0.12061
-0.00849946
0.113421
-0.00522135
0.0987035
0.0566131
0.00277437
0.958581
0.00164372
0.945859
0.000845364
0.90162
0.000770109
0.857386
0.000615678
0.816009
0.000642758
0.776417
0.000747151
0.738864
0.000877301
0.703112
0.000962029
0.6692
0.000858392
0.637141
0.000661995
0.606666
0.000447916
0.577692
0.000206246
0.550191
-0.000114865
0.524076
-0.000555018
0.499378
-0.00102533
0.475948
-0.00155292
0.453748
-0.00217615
0.432641
-0.00280445
0.412568
-0.00352321
0.393546
-0.00445422
0.375657
-0.00557849
0.358496
-0.00673256
0.342137
-0.00780786
0.326808
-0.00878602
0.312212
-0.00962105
0.298301
-0.010365
0.285096
-0.0111576
0.272639
-0.0120904
0.260845
-0.0130777
0.249641
-0.0140291
0.238997
-0.0148996
0.228785
-0.0156812
0.218997
-0.016333
0.209699
-0.0168096
0.200895
-0.0171517
0.192495
-0.0174284
0.184517
-0.0176341
0.176871
-0.0177347
0.169542
-0.0177168
0.162482
-0.0174721
0.155654
-0.0169475
0.14905
-0.0162333
0.142689
-0.0154101
0.136609
-0.014477
0.130711
-0.0134078
0.125002
-0.0119604
0.119163
-0.0097289
0.11119
-0.00578421
0.0947588
0.0508289
0.0035048
0.955076
0.00263227
0.946732
0.00186678
0.902386
0.00131538
0.857938
0.000921802
0.816402
0.000640647
0.776698
0.000542648
0.738962
0.000536766
0.703118
0.000567678
0.669169
0.000608337
0.6371
0.000534134
0.60674
0.000302262
0.577924
-9.70246e-05
0.55059
-0.000644411
0.524624
-0.00126172
0.499995
-0.00203071
0.476717
-0.00295952
0.454677
-0.00405459
0.433736
-0.00528718
0.413801
-0.00651371
0.394772
-0.00763948
0.376783
-0.00870107
0.359557
-0.00975605
0.343192
-0.0108888
0.327941
-0.012162
0.313485
-0.0135261
0.299666
-0.0149162
0.286487
-0.0161924
0.273915
-0.0172493
0.261902
-0.018105
0.250496
-0.0188347
0.239727
-0.0194563
0.229406
-0.0199977
0.219538
-0.0204741
0.210176
-0.0209099
0.201331
-0.0212253
0.192811
-0.021331
0.184623
-0.0212095
0.176749
-0.0208971
0.16923
-0.020397
0.161982
-0.0197929
0.15505
-0.0191586
0.148415
-0.0184129
0.141944
-0.0174686
0.135665
-0.016375
0.129617
-0.0152066
0.123833
-0.0134433
0.117399
-0.0108534
0.1086
-0.00634862
0.0902541
0.0444802
0.00303558
0.952041
0.00189458
0.947873
0.00109099
0.903189
0.000779348
0.858249
0.000564263
0.816617
0.000713915
0.776548
0.000682152
0.738994
0.000409091
0.703391
1.10901e-05
0.669567
-0.000444504
0.637556
-0.000977091
0.607273
-0.0015437
0.578491
-0.00217063
0.551217
-0.00295249
0.525406
-0.00380189
0.500845
-0.00463278
0.477548
-0.00542647
0.455471
-0.00623691
0.434546
-0.0071349
0.414699
-0.00816115
0.395799
-0.00936846
0.37799
-0.0107832
0.360972
-0.0121519
0.34456
-0.0133991
0.329188
-0.0145004
0.314586
-0.0154406
0.300606
-0.0162409
0.287287
-0.0170688
0.274743
-0.018019
0.262852
-0.0190088
0.251486
-0.0199262
0.240644
-0.0207292
0.230209
-0.0214343
0.220243
-0.0220125
0.210754
-0.0223771
0.201696
-0.0225566
0.19299
-0.0226395
0.184706
-0.0226472
0.176757
-0.0225411
0.169124
-0.0223237
0.161765
-0.0218919
0.154618
-0.0211808
0.147704
-0.0202891
0.141052
-0.0193009
0.134677
-0.0181916
0.128508
-0.0169634
0.122605
-0.0150726
0.115509
-0.0121451
0.105672
-0.00689344
0.0850024
0.0375868
0.00367716
0.948363
0.00300349
0.948547
0.00237504
0.903818
0.00179705
0.858827
0.00130494
0.817109
0.000968271
0.776885
0.000799716
0.739163
0.000685773
0.703505
0.000461294
0.669791
8.25806e-05
0.637934
-0.00037915
0.607735
-0.00100695
0.579118
-0.00176117
0.551971
-0.00258745
0.526232
-0.00354908
0.501806
-0.00466771
0.478667
-0.00594905
0.456752
-0.00732706
0.435924
-0.00873682
0.416109
-0.0101183
0.39718
-0.0113238
0.379195
-0.0124853
0.362133
-0.0136918
0.345767
-0.0149758
0.330472
-0.0164023
0.316013
-0.0179637
0.302167
-0.0195443
0.288868
-0.0209539
0.276153
-0.0220803
0.263978
-0.0229678
0.252374
-0.0237168
0.241393
-0.0243725
0.230865
-0.0249038
0.220774
-0.0253089
0.211159
-0.0256397
0.202026
-0.0258676
0.193218
-0.0258957
0.184734
-0.0256958
0.176557
-0.025293
0.168721
-0.024688
0.16116
-0.0239684
0.153898
-0.0232197
0.146956
-0.0223755
0.140208
-0.0213606
0.133662
-0.0202107
0.127358
-0.0187998
0.121194
-0.0167726
0.113481
-0.0134634
0.102363
-0.00749212
0.0790311
0.0300947
0.00365745
0.944706
0.00294537
0.949259
0.00242197
0.904341
0.00211572
0.859134
0.00219595
0.817029
0.00211283
0.776968
0.00170007
0.739576
0.0010296
0.704175
0.00037566
0.670445
-0.000311659
0.638622
-0.00110849
0.608531
-0.00193425
0.579944
-0.00285134
0.552888
-0.00385062
0.527231
-0.00489871
0.502854
-0.00591148
0.479679
-0.00691871
0.457759
-0.00800235
0.437008
-0.00917091
0.417277
-0.0105104
0.39852
-0.0120407
0.380726
-0.0136786
0.363771
-0.0152666
0.347355
-0.0166754
0.331881
-0.0178884
0.317226
-0.018892
0.303171
-0.0197746
0.28975
-0.020703
0.277081
-0.0217532
0.265029
-0.0228321
0.253453
-0.0238159
0.242377
-0.0246525
0.231702
-0.0253899
0.221512
-0.0260155
0.211785
-0.0264205
0.202431
-0.026604
0.193402
-0.0266613
0.184791
-0.0266377
0.176533
-0.0265026
0.168586
-0.0262691
0.160927
-0.0258461
0.153475
-0.0251548
0.146264
-0.0242721
0.139325
-0.0232935
0.132683
-0.0223368
0.126401
-0.0208056
0.119663
-0.0186487
0.111325
-0.0148515
0.0985656
-0.00821077
0.0723904
0.0218839
0.00408166
0.940624
0.00390382
0.949437
0.00374894
0.904496
0.00325883
0.859624
0.00294685
0.817341
0.00260141
0.777314
0.00235769
0.739819
0.00203583
0.704497
0.00158009
0.670901
0.00108754
0.639114
0.000461482
0.609158
-0.000342069
0.580748
-0.00125058
0.553797
-0.00228455
0.528265
-0.00348926
0.504059
-0.00486197
0.481052
-0.00633414
0.459231
-0.0078975
0.438571
-0.00946511
0.418845
-0.0109241
0.399979
-0.0122522
0.382054
-0.0135889
0.365108
-0.0150278
0.348794
-0.0165424
0.333395
-0.0182173
0.318901
-0.0200223
0.304976
-0.0218038
0.291532
-0.0233855
0.278663
-0.0246881
0.266331
-0.0257521
0.254517
-0.0266616
0.243286
-0.027484
0.232524
-0.0281585
0.222186
-0.0286635
0.21229
-0.0290591
0.202827
-0.0293685
0.193711
-0.0295043
0.184927
-0.0294234
0.176453
-0.0291333
0.168295
-0.028626
0.160419
-0.0279838
0.152833
-0.0272981
0.145579
-0.0265343
0.138561
-0.0256312
0.13178
-0.0246371
0.125407
-0.0229157
0.117942
-0.0203895
0.108798
-0.0157185
0.0938946
-0.00790717
0.064579
0.0139767
0.00452749
0.936097
0.00439971
0.949564
0.00428269
0.904613
0.00422885
0.859678
0.00427785
0.817292
0.0039301
0.777661
0.00341479
0.740335
0.0027874
0.705125
0.00214624
0.671542
0.00138572
0.639875
0.000633769
0.609909
-0.000230634
0.581612
-0.00122905
0.554795
-0.00228314
0.529319
-0.00338625
0.505162
-0.00452907
0.482195
-0.00568276
0.460385
-0.00689485
0.439784
-0.0083409
0.420291
-0.0100584
0.401696
-0.0119325
0.383928
-0.0138276
0.367003
-0.0156489
0.350615
-0.017293
0.33504
-0.0186981
0.320306
-0.0199122
0.30619
-0.0210505
0.29267
-0.0222091
0.279822
-0.0234492
0.267571
-0.0247171
0.255784
-0.025916
0.244485
-0.0269648
0.233573
-0.0279066
0.223128
-0.0287406
0.213124
-0.0293811
0.203467
-0.0297892
0.194119
-0.0300364
0.185174
-0.0301781
0.176594
-0.0302063
0.168324
-0.0301447
0.160358
-0.0299147
0.152603
-0.0294411
0.145105
-0.0287816
0.137902
-0.0281375
0.131136
-0.0270294
0.124299
-0.0252679
0.11618
-0.0221447
0.105675
-0.016172
0.0879219
-0.0063687
0.0547758
0.00760805
0.00489736
0.931199
0.0049951
0.949467
0.00523501
0.904373
0.00515239
0.85976
0.00507544
0.817369
0.00488581
0.777851
0.00467065
0.74055
0.00439423
0.705401
0.00408633
0.67185
0.00367043
0.640291
0.00307622
0.610504
0.0023597
0.582329
0.00147132
0.555684
0.000398695
0.530392
-0.000863928
0.506425
-0.00235267
0.483684
-0.00402871
0.462061
-0.00570864
0.441464
-0.00727833
0.421861
-0.00876723
0.403185
-0.0102599
0.385421
-0.0118792
0.368622
-0.0136221
0.352358
-0.0154943
0.336912
-0.017549
0.32236
-0.0196971
0.308338
-0.0217903
0.294763
-0.0237104
0.281742
-0.0253938
0.269255
-0.0268306
0.257221
-0.0280726
0.245727
-0.0292182
0.234718
-0.0302186
0.224129
-0.0310393
0.213944
-0.0317019
0.20413
-0.0322768
0.194694
-0.0327177
0.185615
-0.0329749
0.176851
-0.0330163
0.168365
-0.0328111
0.160152
-0.0324379
0.15223
-0.0319749
0.144642
-0.0314466
0.137373
-0.0308932
0.130583
-0.0296681
0.123074
-0.0276881
0.1142
-0.0237191
0.101706
-0.0159984
0.0802013
-0.00451493
0.0432922
0.00309312
0.00490368
0.926296
0.00527777
0.949093
0.00578418
0.903867
0.00597137
0.859573
0.00608047
0.81726
0.00600847
0.777923
0.00586296
0.740695
0.00552459
0.705739
0.00502329
0.672351
0.00452968
0.640784
0.00392575
0.611108
0.00318619
0.583068
0.00235487
0.556515
0.00144453
0.531302
0.00043024
0.507439
-0.000628358
0.484742
-0.00179108
0.463224
-0.00323735
0.44291
-0.00501558
0.423639
-0.00706744
0.405237
-0.00920042
0.387554
-0.0113209
0.370743
-0.01344
0.354477
-0.0153594
0.338831
-0.0170756
0.324077
-0.0187107
0.309973
-0.0202884
0.296341
-0.0218451
0.283298
-0.0234292
0.270839
-0.0250671
0.258859
-0.0266897
0.24735
-0.0281755
0.236204
-0.0295245
0.225478
-0.0307449
0.215165
-0.031826
0.205211
-0.0326954
0.195564
-0.03336
0.18628
-0.0338626
0.177354
-0.0342482
0.168751
-0.0345594
0.160464
-0.0347157
0.152386
-0.0346515
0.144578
-0.0344817
0.137204
-0.0339439
0.130045
-0.032615
0.121745
-0.0300607
0.111646
-0.0250914
0.096737
-0.0161411
0.0712509
-0.00304562
0.0301968
4.75078e-05
0.00519795
0.921098
0.0057704
0.94852
0.00635092
0.903286
0.00670996
0.859214
0.00706099
0.816909
0.00716734
0.777817
0.0072687
0.740594
0.00737371
0.705634
0.00741222
0.672313
0.00726445
0.640932
0.00697213
0.6114
0.00647395
0.583566
0.00574164
0.557247
0.00478496
0.532259
0.00359217
0.508632
0.00208537
0.486249
0.000465928
0.464843
-0.00109207
0.444468
-0.00259513
0.425142
-0.0041656
0.406807
-0.00591635
0.389304
-0.00783817
0.372665
-0.00997095
0.35661
-0.0123429
0.341203
-0.0148672
0.326601
-0.0174126
0.312518
-0.0199681
0.298896
-0.0224326
0.285763
-0.024708
0.273114
-0.0267079
0.260859
-0.0284637
0.249105
-0.0300987
0.237839
-0.0316189
0.226998
-0.0329794
0.216525
-0.034124
0.206356
-0.0351482
0.196588
-0.0360814
0.187213
-0.0368843
0.178157
-0.0374634
0.16933
-0.0377545
0.160755
-0.0378515
0.152483
-0.0378359
0.144562
-0.0379315
0.137299
-0.0372941
0.129408
-0.0359041
0.120355
-0.0327987
0.10854
-0.0264606
0.0903988
-0.0152569
0.0600472
-0.00222098
0.0171608
-0.00217348
0.00530697
0.915791
0.00604786
0.947779
0.00676968
0.902564
0.00716561
0.858818
0.0076279
0.816447
0.00795146
0.777493
0.00811452
0.740431
0.00820142
0.705548
0.00820232
0.672312
0.00810876
0.641026
0.00788587
0.611623
0.00754235
0.58391
0.00706991
0.55772
0.00642543
0.532903
0.00568757
0.50937
0.0048192
0.487117
0.00360675
0.466056
0.00197392
0.446101
-2.08336e-05
0.427137
-0.00222739
0.409014
-0.00454941
0.391626
-0.00692483
0.37504
-0.00930239
0.358987
-0.0115347
0.343435
-0.0137188
0.328785
-0.0159117
0.314711
-0.018031
0.301016
-0.0201083
0.28784
-0.022217
0.275223
-0.0244314
0.263074
-0.0266757
0.25135
-0.0288078
0.239971
-0.0307544
0.228944
-0.032539
0.21831
-0.0342432
0.20806
-0.035778
0.198123
-0.0370671
0.188502
-0.0381165
0.179206
-0.0390373
0.170251
-0.0399195
0.161637
-0.0406793
0.153243
-0.0413663
0.145249
-0.0416223
0.137555
-0.0410751
0.128861
-0.0395301
0.11881
-0.0356343
0.104645
-0.0268877
0.0816522
-0.0120032
0.0451628
-0.00157967
0.00673734
-0.00375314
0.00576339
0.910027
0.0061638
0.947379
0.00689652
0.901832
0.00727258
0.858442
0.00796448
0.815755
0.00857415
0.776883
0.00926021
0.739745
0.00977433
0.705033
0.0101893
0.671897
0.0105383
0.640676
0.0106976
0.611464
0.0106388
0.583969
0.0103364
0.558022
0.00975839
0.533481
0.0087815
0.510347
0.00753196
0.488367
0.00624472
0.467343
0.00495611
0.447389
0.00354562
0.428547
0.00186036
0.410699
-0.000110734
0.393598
-0.00232821
0.377258
-0.00491567
0.361575
-0.00781666
0.346336
-0.0107908
0.331759
-0.0138532
0.317774
-0.0170396
0.304202
-0.0201851
0.290986
-0.0231527
0.278191
-0.0258471
0.265768
-0.0282954
0.253798
-0.0305903
0.242266
-0.0328028
0.231157
-0.0348741
0.220381
-0.0366831
0.209869
-0.0383229
0.199762
-0.0398953
0.190075
-0.0414102
0.180721
-0.0427223
0.171563
-0.0437063
0.162621
-0.0444736
0.15401
-0.045354
0.14613
-0.04553
0.137731
-0.044985
0.128316
-0.0427471
0.116572
-0.0370389
0.0989363
-0.0257655
0.0703789
-0.00780541
0.0272026
-0.00105966
-8.41356e-06
-0.00481281
0.00504874
0.904979
0.00552263
0.946905
0.00655608
0.900798
0.00696843
0.85803
0.00763989
0.815083
0.00816142
0.776362
0.00891392
0.738992
0.00959003
0.704357
0.0101992
0.671288
0.010675
0.640201
0.0110421
0.611096
0.0112647
0.583746
0.0113171
0.55797
0.0112327
0.533566
0.0110321
0.510547
0.0104304
0.488969
0.00923956
0.468534
0.00760088
0.449028
0.00565524
0.430493
0.00350361
0.412851
0.00114491
0.395956
-0.00138281
0.379785
-0.00395882
0.364151
-0.00660508
0.348983
-0.00936145
0.334516
-0.0121139
0.320526
-0.0148131
0.306901
-0.0175618
0.293734
-0.0204071
0.281036
-0.0233547
0.268715
-0.0263222
0.256766
-0.0292126
0.245157
-0.0318927
0.233837
-0.0343911
0.22288
-0.0368439
0.212322
-0.0391729
0.202091
-0.0412535
0.192155
-0.0430217
0.182489
-0.0446252
0.173166
-0.0462634
0.164259
-0.0479806
0.155727
-0.0492178
0.147367
-0.0495756
0.138089
-0.0488866
0.127627
-0.0454461
0.113132
-0.0366703
0.0901606
-0.0204631
0.0541716
-0.0043486
0.0110882
-0.000129713
-0.0042273
-0.00494252
0.00498971
0.899989
0.00439661
0.947498
0.00499289
0.900202
0.00566863
0.857354
0.00672274
0.814029
0.00762408
0.775461
0.00870828
0.737908
0.00975086
0.703315
0.0108192
0.67022
0.0117887
0.639231
0.0126559
0.610229
0.0132831
0.583119
0.0136416
0.557611
0.0136052
0.533602
0.0131985
0.510954
0.0126852
0.489482
0.0120698
0.469149
0.0111726
0.449925
0.00989867
0.431767
0.00818404
0.414566
0.00608326
0.398057
0.00364919
0.382219
0.000737934
0.367062
-0.00252305
0.352244
-0.00594268
0.337935
-0.00964534
0.324229
-0.0135374
0.310793
-0.0173729
0.29757
-0.0210472
0.28471
-0.0245494
0.272218
-0.027858
0.260074
-0.030966
0.248265
-0.0339734
0.236844
-0.0368432
0.22575
-0.0394367
0.214915
-0.0418246
0.204479
-0.0441218
0.194452
-0.0464358
0.184803
-0.0486337
0.175364
-0.050494
0.166119
-0.0521625
0.157396
-0.0531998
0.148404
-0.0534514
0.138341
-0.0518601
0.126035
-0.0462949
0.107566
-0.0340666
0.0779323
-0.0133197
0.0334247
-0.00283832
0.000606757
-9.91098e-05
-0.00696652
-0.00504163
0.00336298
0.896626
0.00304493
0.947816
0.00348909
0.899758
0.003868
0.856975
0.00476819
0.813129
0.00568684
0.774542
0.00676569
0.736829
0.00793494
0.702146
0.00915353
0.669001
0.0103353
0.638049
0.0114537
0.609111
0.01246
0.582113
0.0133571
0.556714
0.0141575
0.532802
0.0145978
0.510514
0.0144159
0.489664
0.0136715
0.469894
0.012504
0.451093
0.0110191
0.433252
0.0091955
0.416389
0.00695939
0.400293
0.00442165
0.384757
0.00173322
0.36975
-0.00121578
0.355193
-0.00445028
0.34117
-0.00768906
0.327468
-0.011016
0.31412
-0.0145645
0.301118
-0.0182847
0.28843
-0.0220345
0.275967
-0.02578
0.26382
-0.0294856
0.25197
-0.0330018
0.24036
-0.0363136
0.229061
-0.0395677
0.218169
-0.0427198
0.207631
-0.0456804
0.197413
-0.0482962
0.187419
-0.0506826
0.177751
-0.0531512
0.168588
-0.0554292
0.159674
-0.0568511
0.149826
-0.0570022
0.138492
-0.0539815
0.123015
-0.0448343
0.0984191
-0.0269658
0.0600639
-0.00746652
0.0139254
-0.00151544
-0.00534432
2.73235e-05
-0.00850928
-0.0050143
0.0020696
0.894556
0.000723853
0.949162
0.000289407
0.900192
0.00106173
0.856203
0.00197608
0.812215
0.00338035
0.773138
0.00484761
0.735362
0.0064145
0.700579
0.00806106
0.667354
0.00973381
0.636377
0.0113427
0.607502
0.0127978
0.580657
0.0139705
0.555541
0.014809
0.531963
0.0155
0.509823
0.0160901
0.489074
0.0163018
0.469682
0.0160125
0.451382
0.0151813
0.434083
0.0138372
0.417733
0.0119884
0.402142
0.00953632
0.387209
0.00645814
0.372829
0.00291582
0.358735
-0.000921086
0.345007
-0.00520609
0.331753
-0.00973993
0.318654
-0.0142265
0.305605
-0.0186061
0.29281
-0.0229898
0.280351
-0.0272426
0.268072
-0.0312651
0.255993
-0.0351254
0.244221
-0.0388357
0.232772
-0.0422741
0.221608
-0.0454866
0.210844
-0.0485204
0.200447
-0.0515801
0.190479
-0.0546208
0.180791
-0.0575003
0.171467
-0.0595864
0.16176
-0.0605521
0.150792
-0.0594275
0.137367
-0.0538581
0.117445
-0.0406483
0.0852093
-0.0173502
0.0367658
-0.00414606
0.000721292
-0.000732224
-0.00875816
0.000132885
-0.00937439
-0.00488142
-0.00141944
0.895976
-0.00234247
0.950085
-0.00248815
0.900338
-0.00249137
0.856206
-0.00180554
0.811529
-0.000557355
0.77189
0.000803501
0.734001
0.00245057
0.698932
0.00412756
0.665677
0.00596041
0.634544
0.00784625
0.605616
0.00973137
0.578772
0.0116194
0.553653
0.0133301
0.530253
0.0145339
0.508619
0.015209
0.488399
0.0154901
0.469401
0.0152782
0.451594
0.0145533
0.434808
0.013272
0.419014
0.0115062
0.403908
0.00935478
0.389361
0.00681086
0.375372
0.00382355
0.361722
0.000393104
0.348437
-0.00329907
0.335445
-0.00723547
0.322591
-0.0116234
0.309993
-0.0162712
0.297458
-0.0208817
0.284962
-0.0254951
0.272686
-0.0301033
0.260601
-0.0345429
0.24866
-0.0387286
0.236957
-0.0427838
0.225663
-0.0467117
0.214772
-0.0505456
0.204281
-0.0540664
0.194
-0.0573242
0.184049
-0.0603865
0.174529
-0.0626018
0.163975
-0.0638183
0.152008
-0.0614087
0.134958
-0.051775
0.107812
-0.031702
0.0651363
-0.0095185
0.0145823
-0.00236371
-0.0064335
-0.000487733
-0.0106341
3.52728e-05
-0.0098974
-0.00484615
-0.00230214
0.898278
-0.00584621
0.953629
-0.00750398
0.901996
-0.00736873
0.856071
-0.00641297
0.810573
-0.00493313
0.77041
-0.0031019
0.73217
-0.00106972
0.696899
0.00108994
0.663518
0.00338372
0.63225
0.00570396
0.603296
0.0079674
0.576509
0.0100948
0.551526
0.0121713
0.528176
0.0142171
0.506573
0.015968
0.486648
0.0172695
0.468099
0.0180189
0.450845
0.0181716
0.434655
0.0176866
0.419499
0.0163586
0.405236
0.0141861
0.391533
0.0112641
0.378294
0.00763164
0.365355
0.00352931
0.352539
-0.00106384
0.340038
-0.00614251
0.327669
-0.011176
0.315026
-0.0162799
0.302562
-0.0215748
0.290257
-0.0268213
0.277932
-0.0318433
0.265623
-0.0366698
0.253487
-0.0413063
0.241594
-0.0456277
0.229984
-0.049661
0.218805
-0.0534162
0.208036
-0.0572168
0.1978
-0.0611038
0.187936
-0.0643766
0.177802
-0.066565
0.166164
-0.065849
0.151292
-0.0601725
0.129281
-0.0460498
0.0936889
-0.0200189
0.0391053
-0.00568053
0.000243923
-0.00196651
-0.0101475
-0.000712464
-0.0118882
-0.000223502
-0.0103864
-0.00506965
-0.00716053
0.905439
-0.00974103
0.956209
-0.0109399
0.903194
-0.0116935
0.856824
-0.0112508
0.81013
-0.0102357
0.769395
-0.00862789
0.730562
-0.00678563
0.695057
-0.00469748
0.66143
-0.00239086
0.629943
0.000198477
0.600707
0.00290782
0.573799
0.00564879
0.548785
0.00821301
0.525612
0.0105091
0.504277
0.0125638
0.484593
0.0141464
0.466517
0.0151807
0.44981
0.0156131
0.434223
0.0154757
0.419637
0.0148111
0.4059
0.0134751
0.392869
0.0115495
0.38022
0.00897488
0.367929
0.00555585
0.355958
0.00166044
0.343933
-0.00269792
0.332028
-0.00785624
0.320185
-0.0133187
0.308024
-0.0188389
0.295777
-0.0243965
0.28349
-0.0300259
0.271252
-0.0354831
0.258944
-0.0406267
0.246737
-0.0455107
0.234868
-0.050155
0.22345
-0.0547431
0.212624
-0.0590382
0.202095
-0.0629974
0.191895
-0.0659847
0.18079
-0.0676656
0.167845
-0.0660212
0.149648
-0.0569214
0.120181
-0.035198
0.0719655
-0.0112034
0.0151107
-0.00359715
-0.00736229
-0.00157992
-0.0121647
-0.000796855
-0.0126712
-0.000384405
-0.0107988
-0.00545405
-0.00847862
0.913917
-0.0137928
0.961524
-0.0182161
0.907618
-0.0186361
0.857244
-0.0177031
0.809197
-0.0161651
0.767857
-0.01397
0.728367
-0.0115952
0.692682
-0.00914852
0.658983
-0.00656637
0.627361
-0.00377601
0.597916
-0.000764493
0.570788
0.00241412
0.545606
0.00569058
0.522336
0.00893203
0.501035
0.012028
0.481497
0.0148102
0.463735
0.0170556
0.447565
0.0186154
0.432663
0.019256
0.418996
0.0189316
0.406225
0.0176904
0.39411
0.0153013
0.382609
0.0121585
0.371072
0.00836636
0.35975
0.00358171
0.348718
-0.00170586
0.337315
-0.00713242
0.325611
-0.0129677
0.313859
-0.019121
0.30193
-0.0254164
0.289785
-0.0315032
0.277339
-0.0374572
0.264898
-0.0431857
0.252466
-0.0484612
0.240144
-0.0533158
0.228304
-0.0576544
0.216963
-0.062107
0.206548
-0.0664945
0.196283
-0.0696348
0.18393
-0.0699234
0.168133
-0.0648459
0.14457
-0.0504163
0.105752
-0.0225458
0.0440951
-0.00670215
-0.000732964
-0.00193575
-0.0121287
-0.000415162
-0.0136853
-0.000122076
-0.0129643
-0.00016133
-0.0107596
-0.00561538
-0.0174397
0.931357
-0.0198366
0.96392
-0.0222211
0.910002
-0.0232722
0.858295
-0.0234312
0.809356
-0.0222739
0.766699
-0.0205295
0.726623
-0.0185618
0.690715
-0.0162149
0.656636
-0.0137298
0.624876
-0.0110058
0.595192
-0.00797694
0.567759
-0.0046589
0.542288
-0.0011898
0.518866
0.002323
0.497523
0.00561564
0.478204
0.00868518
0.460665
0.0113207
0.444929
0.0134518
0.430532
0.0150863
0.417362
0.0159243
0.405387
0.0160129
0.394022
0.015352
0.38327
0.0133221
0.373102
0.0104641
0.362608
0.00699224
0.35219
0.00233959
0.341968
-0.00328128
0.331232
-0.00952701
0.320105
-0.0159418
0.308345
-0.0225065
0.29635
-0.0292786
0.284111
-0.0359901
0.27161
-0.0423174
0.258793
-0.0482088
0.246035
-0.0538676
0.233963
-0.0589704
0.222066
-0.0638194
0.211397
-0.0674078
0.199871
-0.0698071
0.186329
-0.0686882
0.167014
-0.0595164
0.135399
-0.0392985
0.0855336
-0.0122201
0.0170166
-0.00209586
-0.0108572
0.00113311
-0.0153577
0.00215
-0.0147022
0.00160278
-0.0124171
0.00051638
-0.00967316
-0.005099
-0.019342
0.950699
-0.0245131
0.969091
-0.0313196
0.916809
-0.0328148
0.85979
-0.0313358
0.807877
-0.0296408
0.765004
-0.0268931
0.723875
-0.0237543
0.687576
-0.0212021
0.654084
-0.0185132
0.622187
-0.0156793
0.592358
-0.0124857
0.564566
-0.0088357
0.538638
-0.0047493
0.51478
-0.000315572
0.493089
0.0041599
0.473729
0.00840224
0.456423
0.0122427
0.441089
0.0154131
0.427361
0.0177124
0.415062
0.0189631
0.404136
0.0188419
0.394143
0.0178589
0.384253
0.0160248
0.374936
0.0125806
0.366053
0.00829745
0.356473
0.00341311
0.346852
-0.00237463
0.33702
-0.0087658
0.326496
-0.0158477
0.315427
-0.0231907
0.303693
-0.0305644
0.291485
-0.0378735
0.278919
-0.0448056
0.265725
-0.0512457
0.252475
-0.0573588
0.240076
-0.0623984
0.227105
-0.0669625
0.215961
-0.0697562
0.202665
-0.0695832
0.186156
-0.0649668
0.162398
-0.0527366
0.123168
-0.0254235