/*--------------------------------*- C++ -*----------------------------------*\
| =========                 |                                                 |
| \\      /  F ield         | OpenFOAM: The Open Source CFD Toolbox           |
|  \\    /   O peration     | Version:  v1912                                 |
|   \\  /    A nd           | Website:  www.openfoam.com                      |
|    \\/     M anipulation  |                                                 |
\*---------------------------------------------------------------------------*/
FoamFile
{
    version     2.0;
    format      ascii;
    class       volVectorField;
    location    "0.37";
    object      U;
}
// * * * * * * * * * * * * * * * * * * * * * * * * * * * * * * * * * * * * * //

dimensions      [0 1 -1 0 0 0 0];


internalField   nonuniform List<vector> 
6600
(
(39.8404 -0.0472983 0)
(40.0979 -0.0703589 2.15569e-20)
(40.1558 0.0120369 1.51302e-18)
(40.1889 0.109684 0)
(40.2339 0.219333 1.86956e-18)
(40.2874 0.340413 6.36569e-20)
(40.3489 0.475749 -7.07064e-20)
(40.407 0.616815 -7.7737e-20)
(40.4813 0.745987 1.57045e-18)
(40.559 0.863095 -1.4894e-19)
(40.6184 0.979184 0)
(40.6728 1.10922 -1.91131e-18)
(40.7349 1.25234 0)
(40.8082 1.38636 -2.10475e-18)
(40.8778 1.52493 -2.7871e-18)
(40.9237 1.69701 -1.46274e-18)
(40.986 1.87632 0)
(41.0516 2.08461 0)
(41.1032 2.32888 2.26384e-18)
(41.1216 2.60999 -2.07666e-18)
(41.1344 2.91619 -2.99796e-19)
(41.1768 3.23014 -1.0598e-18)
(41.2065 3.58151 -1.92363e-18)
(41.2145 3.97774 4.09703e-19)
(41.2611 4.41175 1.47139e-18)
(41.3099 4.89279 0)
(41.308 5.42934 3.38474e-18)
(41.2935 6.02479 0)
(41.3065 6.67637 -1.5095e-18)
(41.3363 7.371 -9.02126e-19)
(41.3765 8.11448 -3.73942e-19)
(41.4031 8.93958 -9.79896e-19)
(41.4246 9.8354 -4.30808e-19)
(41.4036 10.8098 6.5756e-19)
(41.3521 11.8516 4.21423e-19)
(41.2964 12.9846 4.6349e-19)
(41.3218 14.2116 1.11343e-18)
(41.3909 15.5306 4.19489e-19)
(41.4514 16.9106 -8.23573e-20)
(41.5358 18.3991 -1.5456e-19)
(41.6419 19.9992 -3.34817e-19)
(41.7177 21.7312 0)
(41.7953 23.5775 1.15666e-18)
(41.9112 25.5788 -2.45147e-18)
(42.0747 27.6589 0)
(42.3214 29.9624 -3.46484e-18)
(42.5057 32.1545 -8.28942e-18)
(43.1526 34.8727 0)
(41.6862 36.3659 0)
(31.2374 29.7794 -4.31365e-18)
(39.7274 -0.0494137 1.27286e-18)
(40.159 -0.0605523 -1.35246e-18)
(40.2071 0.0510765 0)
(40.2499 0.165745 -2.57253e-20)
(40.3006 0.287357 1.81909e-18)
(40.3612 0.40653 6.23016e-20)
(40.4264 0.521009 -5.21678e-22)
(40.4995 0.634568 -7.62869e-20)
(40.5772 0.755628 0)
(40.6663 0.88829 -2.86355e-18)
(40.75 1.02044 -1.02467e-19)
(40.8192 1.1544 1.76407e-18)
(40.8855 1.29721 1.82328e-18)
(40.9449 1.47185 1.1924e-18)
(41.0206 1.63948 8.20727e-22)
(41.0896 1.82115 1.69418e-19)
(41.1343 2.02557 -1.44177e-18)
(41.1929 2.24098 0)
(41.2347 2.45805 0)
(41.2733 2.69614 2.1075e-18)
(41.301 2.9803 2.77013e-19)
(41.3616 3.30499 -1.46368e-18)
(41.4609 3.64779 -1.2615e-18)
(41.5186 4.04425 -1.37255e-18)
(41.5508 4.48193 -1.08714e-18)
(41.6007 4.97091 -4.44725e-19)
(41.6493 5.49154 -5.72429e-19)
(41.7029 6.05792 -5.18115e-19)
(41.7705 6.68941 1.4746e-18)
(41.8276 7.39061 3.23314e-19)
(41.879 8.15916 -1.65755e-18)
(41.9347 8.99717 1.39781e-18)
(41.9862 9.90193 6.31835e-19)
(42.0474 10.865 -9.46918e-19)
(42.1927 11.9141 4.70885e-19)
(42.3876 13.059 -4.74089e-19)
(42.5402 14.2852 -4.36867e-19)
(42.6502 15.5974 -2.97032e-19)
(42.7608 17.0105 5.04744e-19)
(42.9417 18.5431 7.34854e-19)
(43.1331 20.1781 0)
(43.3622 21.8983 0)
(43.6573 23.7052 1.75652e-18)
(44.013 25.6296 -2.01307e-18)
(44.416 27.6345 -6.09912e-18)
(44.8579 29.8413 3.57839e-18)
(45.2444 31.9668 1.08104e-17)
(46.0351 34.5172 0)
(44.6943 35.5224 -1.01173e-17)
(32.8017 28.6888 4.66183e-18)
(39.639 -0.0285011 -4.44112e-20)
(40.2663 -0.0921584 1.38269e-18)
(40.3077 0.046919 1.44763e-18)
(40.3507 0.153549 -3.3284e-22)
(40.4145 0.276192 -1.47673e-19)
(40.4864 0.409225 6.10894e-20)
(40.5576 0.541027 0)
(40.6236 0.667535 0)
(40.6938 0.78359 0)
(40.7673 0.889167 1.54604e-18)
(40.8418 1.01775 -9.86463e-20)
(40.9108 1.16211 -1.77586e-18)
(40.988 1.29183 -9.18737e-19)
(41.0717 1.43149 1.96186e-18)
(41.1527 1.59938 1.11223e-18)
(41.2425 1.77871 -1.58239e-19)
(41.3354 1.97748 2.96757e-18)
(41.4326 2.21112 -1.46264e-18)
(41.5161 2.50195 -1.59443e-18)
(41.5915 2.78671 0)
(41.6376 3.11539 -9.39652e-19)
(41.6903 3.47814 1.16858e-18)
(41.7716 3.86869 1.27664e-18)
(41.8742 4.2874 1.38988e-18)
(41.9773 4.7499 1.17134e-18)
(42.1022 5.27175 -8.82153e-20)
(42.1841 5.86068 -1.96968e-19)
(42.2632 6.49788 -4.66375e-19)
(42.3632 7.17854 -2.09349e-19)
(42.4956 7.90259 7.8531e-19)
(42.644 8.6723 1.99216e-19)
(42.7934 9.51791 0)
(42.9373 10.4123 -4.31721e-19)
(43.0627 11.3885 -6.21819e-21)
(43.165 12.4349 -1.27594e-19)
(43.2667 13.5646 -8.82306e-19)
(43.472 14.7732 -7.51973e-20)
(43.7751 16.0622 5.79388e-19)
(44.0838 17.4062 5.76903e-19)
(44.4128 18.829 0)
(44.8075 20.3419 2.71182e-18)
(45.1933 21.9711 0)
(45.6031 23.6979 0)
(46.1018 25.5415 5.90175e-18)
(46.7035 27.4321 3.50374e-18)
(47.3962 29.5328 -5.7072e-18)
(48.0931 31.5953 -6.14578e-18)
(49.0536 33.8559 0)
(47.642 34.4116 -5.9919e-18)
(34.1222 27.1922 6.57126e-18)
(39.5836 -0.010697 -1.23718e-18)
(40.3794 -0.0467818 1.00618e-20)
(40.4174 0.133031 -1.48692e-18)
(40.4749 0.228573 -1.49333e-18)
(40.5294 0.343162 -1.71472e-18)
(40.5925 0.454576 -8.8157e-19)
(40.661 0.559404 -6.44728e-20)
(40.7386 0.674472 0)
(40.8255 0.800317 1.19854e-18)
(40.9121 0.926314 1.39841e-18)
(41.0043 1.04787 -9.38e-20)
(41.0831 1.18818 -1.017e-19)
(41.1719 1.3593 -8.15972e-19)
(41.2586 1.52296 -2.01859e-19)
(41.347 1.69431 4.04335e-20)
(41.4334 1.89023 -1.45672e-19)
(41.5078 2.10812 2.4984e-20)
(41.5955 2.31687 1.64711e-18)
(41.6895 2.5649 2.11995e-18)
(41.7817 2.84693 0)
(41.8758 3.14868 1.4712e-19)
(41.9838 3.50111 0)
(42.124 3.89068 0)
(42.2464 4.32542 -2.53071e-19)
(42.3481 4.80393 7.40865e-19)
(42.4749 5.29696 7.7841e-19)
(42.6051 5.83136 -1.45883e-19)
(42.7489 6.42625 6.64095e-19)
(42.9023 7.08068 0)
(43.0664 7.80265 0)
(43.2378 8.58899 -1.98045e-20)
(43.4225 9.44302 0)
(43.6106 10.3591 1.62168e-19)
(43.8453 11.33 -3.8387e-19)
(44.1501 12.3683 6.75929e-19)
(44.5521 13.4899 1.41654e-18)
(44.917 14.6856 -2.75608e-18)
(45.2314 15.9552 1.07694e-18)
(45.5684 17.3062 5.22991e-19)
(46.0018 18.7563 6.13674e-19)
(46.4802 20.2895 -6.47375e-18)
(47.0435 21.8744 0)
(47.6901 23.5181 0)
(48.4156 25.2477 -3.411e-18)
(49.2045 27.0183 -5.39459e-18)
(50.0454 28.9534 -1.04547e-18)
(50.9083 30.9288 -8.80424e-18)
(51.8221 32.9131 9.72708e-18)
(50.202 32.9934 1.3153e-17)
(35.0163 25.3814 0)
(39.5187 0.0110178 -4.44759e-21)
(40.5145 -0.0734934 1.20827e-18)
(40.5471 0.128112 1.31615e-18)
(40.6187 0.20289 1.54704e-18)
(40.6836 0.32941 0)
(40.7509 0.44596 5.03238e-20)
(40.8204 0.564996 0)
(40.8876 0.682744 -6.61282e-20)
(40.9597 0.793571 -2.25801e-18)
(41.0442 0.917087 -1.40019e-18)
(41.1336 1.05005 8.80301e-20)
(41.2309 1.17065 9.43471e-20)
(41.3135 1.29708 -1.04999e-19)
(41.4107 1.45359 -9.48235e-19)
(41.5247 1.63007 -2.07988e-18)
(41.663 1.81859 1.34816e-19)
(41.7896 2.04761 -2.28247e-18)
(41.9252 2.31108 1.50446e-19)
(42.0566 2.59418 -7.1813e-19)
(42.1758 2.90537 -3.47249e-19)
(42.2715 3.26719 9.98845e-19)
(42.3636 3.65048 0)
(42.5106 4.05212 0)
(42.694 4.49213 -3.1099e-19)
(42.8746 4.99072 -4.64623e-19)
(43.068 5.54777 3.13162e-19)
(43.2727 6.15992 -8.63174e-20)
(43.4669 6.82024 0)
(43.6637 7.51674 4.16439e-21)
(43.9116 8.24888 -4.63912e-21)
(44.1895 9.0317 2.01282e-20)
(44.4707 9.86967 7.31868e-19)
(44.743 10.7519 -2.36986e-19)
(45.0344 11.7113 5.19412e-19)
(45.3271 12.738 -5.77989e-19)
(45.6061 13.8235 0)
(45.9976 14.9746 1.08113e-18)
(46.5318 16.1955 4.06309e-18)
(47.1004 17.463 -2.21069e-18)
(47.6812 18.7746 -2.82739e-18)
(48.3517 20.1484 3.78421e-18)
(49.0323 21.609 0)
(49.7517 23.1375 0)
(50.5848 24.7444 -5.06586e-18)
(51.547 26.3593 1.11666e-17)
(52.5965 28.1422 3.05345e-18)
(53.6743 30.0031 5.19588e-18)
(54.5824 31.6657 -1.13639e-17)
(52.5079 31.3281 8.60173e-19)
(35.5252 23.302 -1.74193e-17)
(39.476 0.0224023 1.08655e-18)
(40.65 -0.0345063 -7.16457e-20)
(40.6792 0.19324 -1.34165e-18)
(40.7635 0.250965 6.79939e-19)
(40.8073 0.370341 0)
(40.8648 0.466819 8.93101e-19)
(40.9405 0.567813 -2.89394e-20)
(41.0214 0.682191 -9.63795e-19)
(41.1114 0.800216 1.13224e-18)
(41.2153 0.915619 0)
(41.3199 1.04574 7.94793e-20)
(41.4296 1.19869 5.73584e-19)
(41.5475 1.357 -8.03949e-19)
(41.6547 1.5233 1.03254e-19)
(41.7646 1.70957 1.03727e-18)
(41.8829 1.91163 -1.1882e-19)
(42.0059 2.13143 7.43118e-19)
(42.1347 2.36753 -1.33444e-19)
(42.2803 2.63715 1.29504e-19)
(42.4471 2.93126 3.29921e-19)
(42.6403 3.24452 3.96508e-19)
(42.7887 3.63945 9.72253e-21)
(42.9758 4.05206 1.29599e-19)
(43.1734 4.50384 3.96517e-19)
(43.3687 4.99317 0)
(43.5849 5.50692 -2.38488e-19)
(43.8015 6.05264 -1.15976e-20)
(44.033 6.64165 -3.87017e-20)
(44.2864 7.28634 -1.0832e-19)
(44.5675 8.00244 -1.18745e-19)
(44.8663 8.78618 6.39225e-19)
(45.2094 9.63384 -5.27676e-19)
(45.56 10.5305 0)
(45.954 11.4744 0)
(46.4376 12.4758 0)
(47.0396 13.5346 0)
(47.621 14.6535 3.06154e-18)
(48.1325 15.8257 -5.92882e-18)
(48.6985 17.0626 0)
(49.37 18.3712 2.82363e-20)
(50.1026 19.7402 -4.21588e-19)
(50.9511 21.1264 -7.41786e-18)
(51.8889 22.5313 4.11462e-18)
(52.8962 23.9848 0)
(53.9651 25.4457 3.82908e-18)
(55.0848 27.0306 -1.37189e-17)
(56.2371 28.7636 9.85435e-18)
(56.924 30.1406 7.11868e-18)
(54.298 29.3491 2.59971e-17)
(35.4704 20.9205 -1.94609e-17)
(39.4302 0.0392039 -1.08513e-18)
(40.7882 -0.0791853 -2.21561e-18)
(40.8133 0.159282 1.89353e-20)
(40.8959 0.191353 -6.82599e-19)
(40.9477 0.329252 6.78614e-19)
(41.0212 0.428445 -2.43339e-20)
(41.0899 0.536144 8.48979e-19)
(41.1689 0.647044 9.6766e-19)
(41.256 0.756416 9.91206e-19)
(41.357 0.873802 -3.44967e-20)
(41.4754 0.98399 -5.53136e-19)
(41.5873 1.10378 -7.55562e-20)
(41.709 1.24806 7.1506e-19)
(41.8461 1.41177 0)
(42.0025 1.59561 0)
(42.1767 1.79957 4.7182e-20)
(42.3562 2.03954 7.54872e-19)
(42.5345 2.31248 0)
(42.7139 2.60235 4.77796e-20)
(42.8709 2.94949 -5.31351e-19)
(43.0587 3.30476 -4.25532e-19)
(43.2299 3.69639 5.07228e-20)
(43.4383 4.1145 0)
(43.7053 4.56368 -1.49166e-19)
(43.9649 5.06666 1.80767e-20)
(44.2467 5.6258 -2.01657e-20)
(44.5605 6.23783 0)
(44.8831 6.90198 0)
(45.2099 7.60293 -6.49794e-21)
(45.5813 8.32447 4.64682e-19)
(45.9965 9.09124 -1.1072e-18)
(46.4102 9.89159 5.11615e-19)
(46.8208 10.7309 8.50076e-19)
(47.2808 11.6311 -2.08216e-18)
(47.7653 12.5934 3.56207e-18)
(48.2127 13.6027 1.17913e-18)
(48.7689 14.6515 -2.10298e-18)
(49.5097 15.7459 2.75399e-18)
(50.3083 16.8764 -4.26211e-18)
(51.11 18.0256 4.76602e-20)
(52.001 19.1977 -4.76139e-19)
(52.9078 20.4288 3.80004e-18)
(53.8512 21.7029 5.51073e-18)
(54.9135 23.011 -6.12198e-18)
(56.1146 24.291 3.84441e-18)
(57.3826 25.7082 0)
(58.6318 27.2836 5.90651e-18)
(59.1695 28.3155 8.648e-18)
(55.6664 27.1358 -1.80152e-17)
(34.8454 18.2953 -5.64253e-18)
(39.3939 0.0391141 9.54505e-19)
(40.9142 -0.0554219 1.06695e-18)
(40.9475 0.198055 9.04865e-21)
(41.0285 0.203274 -5.90533e-19)
(41.0638 0.335854 -1.35539e-18)
(41.1349 0.415314 7.19811e-19)
(41.2255 0.506817 -1.60343e-18)
(41.3165 0.606035 4.04936e-19)
(41.4199 0.707082 -9.63895e-19)
(41.5353 0.818869 -4.91128e-19)
(41.66 0.956809 1.10863e-18)
(41.802 1.09819 -6.61584e-19)
(41.9422 1.25458 -5.29218e-19)
(42.0869 1.42376 2.83245e-21)
(42.2392 1.61307 -2.33944e-19)
(42.4022 1.8238 2.70131e-19)
(42.5839 2.04556 -3.58743e-19)
(42.7739 2.30058 0)
(42.9969 2.57489 0)
(43.2367 2.86905 0)
(43.4938 3.2077 -1.36446e-20)
(43.7375 3.59119 -8.15911e-20)
(43.9776 4.02656 9.55984e-20)
(44.2774 4.48666 2.05115e-20)
(44.586 4.97777 0)
(44.8909 5.48702 0)
(45.1989 6.01366 -3.99095e-19)
(45.5382 6.57294 2.57133e-19)
(45.9071 7.19845 -1.2702e-19)
(46.3035 7.89366 1.53408e-19)
(46.7313 8.63696 1.07832e-19)
(47.1995 9.43162 1.059e-18)
(47.7163 10.2651 -5.62437e-19)
(48.2679 11.1459 2.12911e-18)
(48.911 12.0695 -1.57323e-18)
(49.684 13.0256 -8.28545e-19)
(50.4698 14.0183 2.29095e-19)
(51.1516 15.046 1.74855e-18)
(51.893 16.1113 1.87415e-18)
(52.7479 17.2249 2.80934e-18)
(53.6616 18.3806 -4.55845e-19)
(54.7026 19.5251 5.02029e-18)
(55.8321 20.6504 -5.58437e-18)
(57.0101 21.7923 0)
(58.2315 22.9163 0)
(59.4952 24.1305 0)
(60.7147 25.5224 0)
(60.8389 26.2615 0)
(56.3502 24.6644 -1.05393e-17)
(33.4459 15.4471 1.72945e-17)
(39.3321 0.0332085 -9.56451e-19)
(41.0258 -0.113216 0)
(41.0683 0.142228 0)
(41.1457 0.13101 6.0081e-19)
(41.2057 0.278261 6.4377e-19)
(41.2855 0.34577 -7.19809e-19)
(41.36 0.44372 7.78798e-19)
(41.4513 0.533759 -4.06229e-19)
(41.5608 0.6268 3.83053e-19)
(41.6893 0.725374 4.89083e-19)
(41.8239 0.830423 -4.91586e-19)
(41.971 0.956495 3.97268e-19)
(42.1403 1.09694 7.49142e-19)
(42.3189 1.26518 0)
(42.5209 1.44766 2.75699e-19)
(42.7399 1.65274 -2.97237e-19)
(42.9707 1.88753 6.24664e-21)
(43.2019 2.15235 -9.67104e-20)
(43.4252 2.45533 5.80015e-20)
(43.6594 2.79571 0)
(43.9291 3.14689 0)
(44.1945 3.52561 -1.71523e-19)
(44.484 3.92404 1.66259e-19)
(44.8201 4.36174 4.24251e-19)
(45.1805 4.85283 1.40098e-19)
(45.5721 5.39911 -5.81454e-19)
(45.9941 6.00008 9.81366e-19)
(46.4386 6.64579 -1.14217e-18)
(46.8949 7.31774 6.56593e-19)
(47.392 7.99808 -5.96887e-19)
(47.9435 8.70876 3.60682e-19)
(48.494 9.44563 -1.25766e-18)
(49.0375 10.2174 8.2211e-19)
(49.6452 11.0239 -1.52234e-18)
(50.2896 11.879 0)
(50.885 12.7699 -1.45731e-18)
(51.5599 13.6839 -1.57399e-18)
(52.4544 14.6139 2.90023e-19)
(53.4211 15.5661 3.21748e-18)
(54.3783 16.5105 -3.24544e-18)
(55.4098 17.4439 -4.24278e-19)
(56.4503 18.4173 -5.62801e-18)
(57.5173 19.4174 1.3225e-17)
(58.7017 20.4122 8.31223e-19)
(60.0239 21.3543 9.92809e-19)
(61.4095 22.4435 -5.32913e-18)
(62.5005 23.5445 0)
(62.3267 23.9948 9.46181e-18)
(56.4221 22.0481 -4.98503e-18)
(31.3201 12.5213 0)
(39.2652 0.0322788 3.21652e-21)
(41.1394 -0.10397 -9.46143e-23)
(41.1995 0.151432 -4.76073e-19)
(41.2708 0.114143 0)
(41.3131 0.257903 -8.67447e-21)
(41.3945 0.287314 -2.74672e-19)
(41.4923 0.36131 0)
(41.6046 0.443396 3.18641e-19)
(41.7204 0.539771 -4.058e-19)
(41.859 0.650779 2.40798e-20)
(42.0245 0.770329 3.43966e-19)
(42.1911 0.905819 -2.37174e-19)
(42.3717 1.04879 -2.41321e-19)
(42.5627 1.21323 0)
(42.7617 1.40284 0)
(42.9818 1.60602 0)
(43.2268 1.82487 -2.95037e-20)
(43.4985 2.05996 9.58952e-20)
(43.7943 2.31164 2.50687e-20)
(44.0909 2.60739 -2.62399e-20)
(44.4269 2.92811 7.53123e-20)
(44.756 3.30921 1.21233e-19)
(45.0864 3.72854 -7.39831e-19)
(45.4772 4.17286 -7.45192e-19)
(45.8904 4.63555 0)
(46.2865 5.11849 5.67028e-19)
(46.6963 5.60936 -1.50072e-18)
(47.1426 6.12351 1.02228e-18)
(47.6279 6.69809 -5.83922e-19)
(48.1383 7.33827 3.50917e-19)
(48.6823 8.0166 -5.2034e-19)
(49.2623 8.73269 1.92541e-18)
(49.9194 9.47189 -2.29179e-18)
(50.6087 10.2573 3.08549e-18)
(51.3764 11.0686 1.34464e-18)
(52.2691 11.8874 -3.19016e-18)
(53.2155 12.7172 3.98701e-18)
(54.0213 13.5763 -2.63635e-18)
(54.869 14.4463 3.82411e-21)
(55.8332 15.343 0)
(56.8408 16.2649 4.55196e-18)
(57.9757 17.1546 3.09051e-18)
(59.1998 17.9964 3.50099e-19)
(60.4491 18.8316 -8.86202e-18)
(61.7193 19.6421 -3.4858e-19)
(63.0614 20.595 -6.23367e-18)
(63.8646 21.3619 0)
(63.0606 21.612 9.95883e-18)
(55.6029 19.2807 -1.66899e-17)
(28.2366 9.53751 0)
(39.1824 0.0253427 0)
(41.2171 -0.158009 0)
(41.2906 0.0842484 2.66282e-19)
(41.3605 0.0288689 -1.48701e-20)
(41.4297 0.172285 2.50665e-19)
(41.5054 0.204613 2.84896e-19)
(41.5982 0.284122 0)
(41.7148 0.345706 -3.19374e-19)
(41.8568 0.416473 2.7926e-19)
(42.0099 0.501394 0)
(42.1824 0.60152 -4.79397e-19)
(42.379 0.71144 -4.56005e-20)
(42.5874 0.845664 -1.47907e-20)
(42.822 0.992341 1.64908e-20)
(43.0685 1.15904 0)
(43.3365 1.35284 0)
(43.6218 1.57444 7.33088e-20)
(43.915 1.83253 -8.27942e-20)
(44.2206 2.1091 8.50395e-20)
(44.5316 2.41891 -2.65767e-20)
(44.872 2.74337 6.89449e-20)
(45.2379 3.0783 -4.38577e-20)
(45.5948 3.43888 4.59416e-19)
(46.0097 3.84208 2.17121e-19)
(46.4673 4.28779 -4.47448e-19)
(46.966 4.79922 -7.33261e-19)
(47.4888 5.36362 5.35877e-19)
(48.0481 5.97053 8.67832e-19)
(48.6208 6.58275 0)
(49.2278 7.19382 0)
(49.8925 7.82255 0)
(50.5641 8.47596 -1.3565e-18)
(51.2207 9.16125 -9.79789e-19)
(51.939 9.85599 -1.07037e-18)
(52.6967 10.5773 1.52405e-18)
(53.403 11.3208 1.89186e-18)
(54.1375 12.087 -9.68577e-19)
(55.1173 12.8381 2.78602e-18)
(56.1796 13.6003 -1.6348e-18)
(57.2171 14.3342 -2.1821e-18)
(58.3118 15.0318 -2.72531e-18)
(59.4032 15.7492 3.03895e-18)
(60.5041 16.4805 0)
(61.7175 17.1773 4.93681e-18)
(63.068 17.823 -2.79365e-18)
(64.4439 18.6479 3.38885e-18)
(64.9372 19.1317 0)
(63.4673 19.1229 -5.03413e-18)
(53.98 16.4821 2.95798e-18)
(24.3949 6.72405 0)
(39.0912 0.00754202 1.64259e-19)
(41.2991 -0.162923 0)
(41.3941 0.0571265 4.054e-19)
(41.4457 -0.013014 -2.00507e-19)
(41.5011 0.10418 -2.42918e-19)
(41.591 0.0885401 7.17643e-21)
(41.705 0.158795 -7.98703e-21)
(41.8425 0.223102 0)
(41.9872 0.306579 -2.72395e-19)
(42.1719 0.3912 1.00181e-19)
(42.3653 0.492165 1.34773e-19)
(42.5705 0.602948 -1.30157e-19)
(42.7989 0.725853 2.91917e-20)
(43.0427 0.869225 5.877e-21)
(43.3051 1.02822 -1.77746e-21)
(43.584 1.20314 0)
(43.8982 1.38803 -5.07522e-20)
(44.2431 1.59457 9.96713e-20)
(44.6108 1.82849 5.58226e-20)
(44.9937 2.08482 -8.79074e-21)
(45.3971 2.39005 4.46468e-20)
(45.8256 2.74066 0)
(46.247 3.12977 9.9814e-20)
(46.7215 3.524 4.219e-19)
(47.2174 3.94596 5.65106e-19)
(47.7027 4.36011 7.37248e-19)
(48.2022 4.78897 0)
(48.7405 5.23571 -6.12152e-19)
(49.328 5.7426 -1.35441e-18)
(49.9364 6.30493 7.872e-19)
(50.5702 6.90036 -1.7389e-18)
(51.2364 7.51907 -8.86632e-19)
(51.9919 8.14776 1.65665e-18)
(52.7856 8.81728 -6.19816e-19)
(53.6351 9.50256 -1.53743e-18)
(54.5889 10.1787 -8.82016e-19)
(55.6379 10.8366 -1.18643e-18)
(56.518 11.5256 0)
(57.4058 12.203 -1.95411e-18)
(58.4093 12.8917 4.33749e-18)
(59.4339 13.5908 2.73174e-18)
(60.5747 14.2466 -3.24524e-18)
(61.8086 14.8327 4.2816e-18)
(63.0468 15.3954 -2.2599e-18)
(64.2957 15.9569 5.84036e-18)
(65.4255 16.5906 6.54486e-20)
(65.5362 16.8287 0)
(62.9207 16.6348 1.03917e-17)
(51.2199 13.6216 -8.87549e-18)
(19.3567 3.96599 -3.33804e-18)
(38.9608 -0.0146513 -1.64396e-19)
(41.3307 -0.191672 1.56353e-19)
(41.4493 -0.0203978 -1.90357e-19)
(41.5097 -0.098627 1.97811e-19)
(41.5692 0.0113742 9.50814e-20)
(41.654 0.00438562 6.46464e-21)
(41.7778 0.0594858 -3.4503e-21)
(41.9311 0.0935797 0)
(42.0942 0.138616 8.41983e-20)
(42.2739 0.199076 -1.41952e-19)
(42.4955 0.261208 0)
(42.7307 0.347277 2.55857e-21)
(42.9894 0.445285 -2.86642e-20)
(43.2701 0.558603 2.27346e-20)
(43.5722 0.693281 -6.08574e-20)
(43.8921 0.856432 -4.48187e-21)
(44.2355 1.04283 1.31421e-20)
(44.6012 1.25539 0)
(44.9806 1.49701 -7.74169e-20)
(45.3752 1.75814 2.40803e-19)
(45.7934 2.01966 -2.97029e-20)
(46.2409 2.29679 0)
(46.685 2.61603 0)
(47.1777 2.96585 -2.17753e-19)
(47.7359 3.3573 1.01223e-19)
(48.3306 3.81637 -7.57724e-19)
(48.9407 4.31791 3.06871e-19)
(49.5909 4.85321 -1.82163e-19)
(50.2488 5.38465 6.51318e-19)
(50.9369 5.91931 2.87528e-19)
(51.6873 6.45698 1.03566e-18)
(52.4528 7.0151 -1.03401e-18)
(53.1995 7.60099 6.59404e-19)
(53.9848 8.18412 -7.47198e-19)
(54.8006 8.76992 -9.315e-19)
(55.5766 9.36514 -1.05407e-18)
(56.3209 9.99193 0)
(57.3202 10.5766 2.5273e-18)
(58.4117 11.1649 -9.5399e-19)
(59.4591 11.7112 -2.35633e-18)
(60.5513 12.2041 2.82723e-18)
(61.631 12.6945 -9.01947e-20)
(62.6939 13.1877 -2.22371e-18)
(63.8586 13.6356 -5.68165e-20)
(65.2264 14.1041 -2.93945e-18)
(66.038 14.4646 -7.18087e-18)
(65.7528 14.5691 4.25434e-18)
(61.8652 14.0667 0)
(47.299 10.7335 -6.12196e-18)
(13.3784 1.56646 1.1725e-17)
(38.8069 -0.0391186 -2.67068e-22)
(41.3713 -0.218941 -1.57429e-19)
(41.4833 -0.0671886 3.73338e-20)
(41.5339 -0.159084 1.36488e-21)
(41.5992 -0.0905945 -9.49485e-20)
(41.7112 -0.119679 0)
(41.8433 -0.0748993 0)
(42.0131 -0.041289 2.43833e-21)
(42.1938 -0.00468485 -1.27059e-19)
(42.3948 0.0497199 3.98203e-20)
(42.6199 0.106937 -9.60314e-22)
(42.8727 0.172216 1.0382e-21)
(43.1441 0.257068 -1.08806e-20)
(43.4403 0.35163 1.21267e-21)
(43.7588 0.460244 9.84772e-20)
(44.0997 0.584197 -3.44161e-20)
(44.4685 0.723346 5.03763e-20)
(44.8806 0.874314 1.78626e-20)
(45.3199 1.04652 -2.01091e-19)
(45.7807 1.27288 -1.54853e-19)
(46.2703 1.54049 6.51695e-21)
(46.7863 1.84546 -4.79505e-20)
(47.2983 2.16463 0)
(47.8446 2.51386 -2.72499e-19)
(48.418 2.86396 6.8941e-21)
(48.9883 3.20411 8.76343e-20)
(49.5679 3.56521 8.21013e-20)
(50.182 3.93994 2.27801e-19)
(50.8531 4.36689 0)
(51.5422 4.83026 1.77674e-19)
(52.243 5.33499 1.03102e-18)
(52.9689 5.85662 9.86293e-19)
(53.7757 6.3803 -5.62428e-19)
(54.6356 6.9298 1.15883e-18)
(55.531 7.49392 -9.47468e-19)
(56.4961 8.04684 -5.97651e-19)
(57.597 8.55681 0)
(58.5098 9.09745 -1.68174e-18)
(59.3841 9.60698 -1.08977e-18)
(60.3707 10.1199 1.21735e-18)
(61.3512 10.6337 -1.49818e-18)
(62.4206 11.1032 1.80661e-18)
(63.5926 11.4918 0)
(64.7707 11.8581 1.30058e-18)
(65.9274 12.2381 0)
(66.2653 12.3945 1.84036e-18)
(65.3116 12.2983 -4.419e-18)
(59.5156 11.4465 2.53222e-18)
(42.2568 7.80713 0)
(7.58149 -0.274709 8.32652e-19)
(38.6119 -0.0645487 -3.02348e-23)
(41.3681 -0.241035 -3.14943e-23)
(41.4959 -0.126379 -3.84976e-20)
(41.5451 -0.236471 -1.43236e-22)
(41.6069 -0.17274 -1.01032e-21)
(41.7196 -0.22312 -1.42989e-22)
(41.8685 -0.194813 1.59174e-22)
(42.0413 -0.210697 -2.3758e-22)
(42.216 -0.196696 3.45661e-20)
(42.4378 -0.196028 2.50953e-22)
(42.682 -0.171306 -1.50946e-25)
(42.9553 -0.143758 1.50082e-22)
(43.2549 -0.0995781 1.05117e-20)
(43.5773 -0.0397691 -2.51052e-20)
(43.9299 0.0441911 -4.69041e-20)
(44.3065 0.146158 3.41053e-20)
(44.7049 0.280927 -4.88427e-20)
(45.126 0.441626 -2.62326e-21)
(45.5744 0.612554 -3.52054e-21)
(46.0369 0.784005 0)
(46.5246 0.970962 -6.05171e-21)
(47.058 1.18688 -3.98017e-21)
(47.5834 1.4439 4.44925e-21)
(48.1537 1.71881 0)
(48.8043 2.06123 0)
(49.4852 2.45284 2.81383e-19)
(50.1846 2.87901 0)
(50.9103 3.33289 -2.28116e-19)
(51.6357 3.78681 0)
(52.3804 4.25174 1.18307e-20)
(53.1886 4.7014 -4.6394e-19)
(54.0202 5.16566 3.31463e-20)
(54.8376 5.65262 -7.01442e-19)
(55.6507 6.13979 6.30127e-20)
(56.4791 6.61474 4.25496e-19)
(57.2909 7.0805 6.72676e-19)
(58.0103 7.59044 -2.36767e-20)
(58.9799 8.047 0)
(60.0512 8.50503 -1.71703e-20)
(61.0514 8.90882 2.05936e-20)
(62.087 9.24809 0)
(63.1166 9.56428 -2.93777e-20)
(64.097 9.88124 -1.44184e-19)
(65.2295 10.1955 -1.12382e-18)
(66.1275 10.4017 -2.26301e-20)
(66.2188 10.4067 0)
(64.2331 10.1469 0)
(56.372 8.88714 3.63873e-19)
(35.5286 4.80292 -3.59558e-19)
(4.12092 -0.994241 8.19965e-19)
(38.4044 -0.0741617 -5.71023e-20)
(41.3404 -0.253662 -6.08513e-20)
(41.4604 -0.172317 -3.22771e-20)
(41.5275 -0.298721 -3.43757e-20)
(41.602 -0.262334 -3.20598e-20)
(41.725 -0.331035 3.20514e-20)
(41.8748 -0.329135 0)
(42.0629 -0.359259 0)
(42.2563 -0.36213 -9.37061e-21)
(42.4741 -0.366378 -2.50923e-22)
(42.7319 -0.369202 -3.29087e-21)
(43.0172 -0.358311 -4.26847e-22)
(43.3312 -0.339421 -2.61278e-20)
(43.6649 -0.31241 4.42922e-20)
(44.0257 -0.274311 7.221e-20)
(44.4142 -0.219237 0)
(44.8396 -0.163444 0)
(45.3039 -0.0835072 2.62291e-21)
(45.8123 0.0374085 3.52006e-21)
(46.3508 0.205916 -1.64804e-19)
(46.9047 0.409807 6.05082e-21)
(47.4963 0.631473 0)
(48.0887 0.885308 0)
(48.6929 1.16139 -5.63825e-20)
(49.3271 1.41605 -2.83231e-19)
(49.9784 1.6907 8.90397e-20)
(50.6228 1.98632 0)
(51.2992 2.29396 -2.64885e-19)
(52.04 2.63596 0)
(52.802 3.0023 -1.18285e-20)
(53.563 3.42468 0)
(54.3351 3.86437 0)
(55.1603 4.30842 1.87059e-19)
(56.0598 4.75384 2.21264e-19)
(56.9755 5.21254 0)
(57.9236 5.68083 0)
(59.0437 6.08733 2.3668e-20)
(59.9611 6.5185 0)
(60.7886 6.90436 1.71625e-20)
(61.7254 7.29547 -6.91123e-19)
(62.6306 7.6846 8.21118e-19)
(63.5694 8.03662 8.83605e-20)
(64.6408 8.32237 6.65652e-20)
(65.7541 8.59714 -1.22167e-18)
(66.1852 8.70783 -7.64146e-19)
(65.6117 8.65328 4.57325e-18)
(62.2006 8.17203 -2.09092e-18)
(51.2776 6.53797 -2.52982e-18)
(27.6579 2.26612 2.07872e-18)
(1.15162 -0.748444 0)
(38.1783 -0.0897062 5.68544e-20)
(41.2846 -0.27968 -5.68443e-20)
(41.4152 -0.219707 3.17508e-20)
(41.4732 -0.359276 -3.10899e-20)
(41.5445 -0.348241 3.4254e-20)
(41.6739 -0.440843 -3.31896e-20)
(41.8175 -0.462554 -1.56491e-21)
(41.9993 -0.527872 1.74239e-21)
(42.1914 -0.578586 8.75053e-21)
(42.4151 -0.630012 6.84126e-22)
(42.6758 -0.677043 3.67116e-21)
(42.9736 -0.714977 3.6297e-20)
(43.3037 -0.740352 -3.82706e-20)
(43.6637 -0.748506 -3.90597e-20)
(44.0611 -0.743034 -2.35588e-19)
(44.484 -0.712203 1.50392e-20)
(44.9256 -0.646484 -1.67874e-20)
(45.3959 -0.576618 2.05807e-19)
(45.8871 -0.505894 3.58241e-20)
(46.4152 -0.430685 1.24596e-19)
(46.973 -0.324917 0)
(47.5704 -0.187945 0)
(48.179 -0.0176491 0)
(48.8267 0.194484 0)
(49.5528 0.481473 2.75188e-19)
(50.3044 0.782712 -7.27039e-19)
(51.0848 1.12742 0)
(51.8856 1.50465 8.20911e-19)
(52.6732 1.89781 0)
(53.4613 2.30312 0)
(54.3024 2.67953 -1.02421e-18)
(55.1742 3.06286 6.40156e-19)
(56.0478 3.45987 -1.49286e-18)
(56.8707 3.87912 4.26177e-19)
(57.6958 4.28525 0)
(58.5255 4.65347 0)
(59.2057 5.08312 8.19153e-19)
(60.1199 5.46221 -2.8241e-18)
(61.1482 5.85049 0)
(62.0718 6.17447 -2.07571e-18)
(63.0131 6.42967 3.20166e-18)
(63.9867 6.65329 -3.78885e-18)
(64.9337 6.9044 2.10116e-18)
(65.7369 7.11898 -2.4722e-18)
(65.8199 7.14933 6.53117e-18)
(64.5941 7.03204 -6.18298e-18)
(59.1886 6.50238 4.19628e-18)
(45.2539 4.73225 -9.4195e-18)
(16.956 0.589478 1.12273e-17)
(-1.03481 -0.0514147 -7.1897e-18)
(37.9411 -0.0971309 1.11312e-19)
(41.1991 -0.298408 -6.02105e-22)
(41.3361 -0.259969 0)
(41.4101 -0.415033 6.48331e-20)
(41.4823 -0.415298 1.33303e-19)
(41.6073 -0.537759 -4.13925e-21)
(41.7663 -0.573993 0)
(41.9466 -0.664759 0)
(42.141 -0.725106 8.81199e-22)
(42.372 -0.8037 -9.8165e-22)
(42.6387 -0.868201 -3.2006e-20)
(42.938 -0.938037 4.28469e-20)
(43.2681 -0.998722 6.62651e-20)
(43.6225 -1.05814 -1.12097e-19)
(44.012 -1.10023 1.56753e-19)
(44.4443 -1.14781 3.22051e-20)
(44.9129 -1.18006 -3.57315e-19)
(45.4306 -1.17136 -6.3677e-19)
(45.9997 -1.1188 0)
(46.5947 -1.03105 3.70929e-19)
(47.2093 -0.919592 4.78178e-19)
(47.8647 -0.784983 0)
(48.5205 -0.616244 -7.72038e-19)
(49.1692 -0.445944 0)
(49.8699 -0.27571 0)
(50.5923 -0.0627108 7.24842e-19)
(51.2908 0.162421 4.50963e-19)
(52.0071 0.39849 1.13999e-18)
(52.7984 0.659711 0)
(53.6286 0.950343 0)
(54.4599 1.3034 4.77109e-19)
(55.2827 1.68279 6.07357e-19)
(56.116 2.07623 2.34752e-18)
(57.0363 2.44237 7.04046e-20)
(57.9615 2.82243 8.1685e-20)
(58.889 3.24817 -2.68231e-18)
(60.0212 3.59842 -1.08757e-19)
(60.9424 3.97087 3.75277e-18)
(61.718 4.28595 2.29026e-18)
(62.6004 4.6201 1.34444e-18)
(63.448 4.96111 3.28885e-18)
(64.2662 5.29189 1.99515e-19)
(65.2801 5.6111 -4.08632e-18)
(65.7001 5.74973 -2.44004e-18)
(65.4072 5.82917 -7.58329e-18)
(62.7407 5.74568 8.71752e-18)
(54.791 5.06857 -3.93911e-18)
(35.9085 3.08781 0)
(7.36945 -0.0805273 0)
(-2.47996 0.526751 1.40989e-18)
(37.6684 -0.121463 -3.43126e-19)
(41.1144 -0.319651 -1.29144e-19)
(41.2494 -0.291394 1.31824e-19)
(41.3057 -0.453674 -3.86756e-21)
(41.3643 -0.471548 -2.63926e-19)
(41.4741 -0.619222 4.20608e-21)
(41.6108 -0.688152 0)
(41.7789 -0.82164 9.56917e-20)
(41.9635 -0.920238 9.22482e-22)
(42.177 -1.04268 -1.87348e-21)
(42.4385 -1.1602 6.12925e-20)
(42.7437 -1.27717 -7.23772e-20)
(43.0892 -1.38368 3.58261e-21)
(43.4701 -1.48485 9.96977e-20)
(43.8868 -1.57124 0)
(44.3369 -1.6203 0)
(44.8082 -1.66343 2.75469e-19)
(45.3028 -1.7128 4.80438e-19)
(45.8405 -1.75722 0)
(46.4295 -1.77713 -3.69768e-19)
(47.0498 -1.76233 -4.76597e-19)
(47.7102 -1.71439 -1.6511e-19)
(48.4067 -1.63842 1.62712e-19)
(49.1314 -1.48403 7.34154e-19)
(49.9061 -1.29023 2.92147e-19)
(50.7212 -1.07884 4.03783e-19)
(51.5861 -0.805908 -1.38241e-18)
(52.47 -0.494139 -1.14725e-18)
(53.3213 -0.158821 1.44561e-18)
(54.1493 0.183196 -1.76532e-18)
(55.0065 0.510003 0)
(55.9038 0.833634 0)
(56.8268 1.16273 8.2264e-20)
(57.6683 1.54046 -1.81321e-18)
(58.4958 1.9098 2.27505e-18)
(59.3493 2.21989 4.1247e-18)
(59.9993 2.60937 -1.56522e-18)
(60.8556 2.95331 -3.86655e-18)
(61.8515 3.33231 -4.56201e-18)
(62.7174 3.64297 -2.77778e-18)
(63.5661 3.89154 -1.68646e-19)
(64.5476 4.13026 3.52294e-18)
(65.3415 4.37951 0)
(65.4143 4.51704 2.40247e-18)
(64.3254 4.6549 2.96159e-18)
(60.0506 4.509 3.37008e-18)
(48.3023 3.70983 1.15783e-17)
(25.3698 1.49676 -4.31142e-18)
(1.94319 0.0658722 0)
(-3.24378 0.852861 0)
(37.3895 -0.08284 -1.77246e-20)
(41.0207 -0.321542 2.473e-19)
(41.1345 -0.290497 -1.35681e-19)
(41.2255 -0.485945 2.89858e-19)
(41.2715 -0.504958 1.43416e-19)
(41.381 -0.664972 -7.06138e-22)
(41.5058 -0.744255 -4.22276e-21)
(41.6673 -0.897556 -9.04315e-20)
(41.8468 -1.02204 -5.59637e-21)
(42.0534 -1.16798 8.45047e-22)
(42.3069 -1.3128 -2.36213e-20)
(42.5918 -1.46228 -6.30162e-21)
(42.9137 -1.61448 -1.25656e-19)
(43.2702 -1.76277 -2.08477e-19)
(43.6759 -1.91631 4.68661e-20)
(44.1316 -2.07852 -5.22788e-20)
(44.6391 -2.19136 0)
(45.1963 -2.26881 -4.32075e-19)
(45.7962 -2.31635 0)
(46.4365 -2.34055 0)
(47.107 -2.33736 0)
(47.8097 -2.30392 -3.35547e-19)
(48.5228 -2.24176 1.1619e-18)
(49.2365 -2.18236 -9.90425e-19)
(50.0133 -2.07956 0)
(50.8047 -1.94263 -4.10857e-19)
(51.5523 -1.79975 -1.47946e-18)
(52.3049 -1.63296 -2.38715e-18)
(53.1483 -1.43109 -2.19632e-18)
(54.047 -1.18658 1.74428e-18)
(54.9569 -0.900576 -2.15848e-18)
(55.836 -0.571485 1.25556e-18)
(56.6844 -0.214233 3.16834e-18)
(57.6202 0.103607 0)
(58.5649 0.435861 2.31441e-18)
(59.481 0.839569 -5.50818e-18)
(60.6404 1.16743 -1.13918e-19)
(61.595 1.53048 3.82519e-18)
(62.3448 1.81999 2.26625e-18)
(63.1928 2.15028 0)
(64.0544 2.50879 3.15611e-18)
(64.9386 2.94581 -3.58373e-18)
(65.2723 3.22993 8.05782e-18)
(65.026 3.39701 0)
(62.9378 3.60094 -1.16149e-17)
(55.7862 3.49895 3.19435e-18)
(39.9573 2.59297 -3.77122e-18)
(11.3604 0.473561 -4.20434e-18)
(-1.69805 0.713709 9.27995e-18)
(-3.6304 0.809833 2.11424e-20)
(37.1391 -0.0894387 2.49792e-19)
(40.9425 -0.326146 -2.85953e-19)
(41.023 -0.247544 3.08899e-19)
(41.0698 -0.471935 -6.07078e-19)
(41.0862 -0.500602 3.36612e-19)
(41.1792 -0.697549 -1.86433e-20)
(41.2777 -0.796555 1.63383e-19)
(41.4159 -0.982655 0)
(41.5697 -1.14201 1.08964e-19)
(41.7532 -1.33027 -6.68281e-20)
(41.9892 -1.52464 4.68655e-21)