/*--------------------------------*- C++ -*----------------------------------*\
| =========                 |                                                 |
| \\      /  F ield         | OpenFOAM: The Open Source CFD Toolbox           |
|  \\    /   O peration     | Version:  v1912                                 |
|   \\  /    A nd           | Website:  www.openfoam.com                      |
|    \\/     M anipulation  |                                                 |
\*---------------------------------------------------------------------------*/
FoamFile
{
    version     2.0;
    format      ascii;
    class       volScalarField;
    location    "0.21";
    object      p;
}
// * * * * * * * * * * * * * * * * * * * * * * * * * * * * * * * * * * * * * //

dimensions      [0 2 -2 0 0 0 0];


internalField   nonuniform List<scalar> 
6600
(
45.116
40.144
37.6396
36.1681
35.4609
35.128
35.122
35.5754
36.3458
37.4622
38.9537
40.8903
43.2285
45.9582
49.0927
52.6189
56.5676
60.924
65.6953
70.8807
76.446
82.3376
88.4864
94.8717
101.555
108.37
115.178
121.875
128.352
134.486
140.137
145.148
149.311
152.36
154.019
153.953
151.777
147.127
139.61
128.855
114.216
95.2182
71.2638
41.6537
5.72097
-37.3087
-87.6022
-146.139
-214.001
-282.656
41.4453
36.1119
34.0931
32.1462
31.0036
30.2758
29.8291
29.8819
30.3773
31.2672
32.4999
34.0708
36.0499
38.4053
41.1398
44.2484
47.7358
51.5966
55.8311
60.4284
65.3622
70.5874
76.0562
81.6048
87.2158
92.9586
98.665
104.129
109.311
114.092
118.229
121.532
123.827
124.863
124.361
121.969
117.305
110.001
99.6442
85.8041
67.9443
45.5077
17.9234
-15.4701
-55.3231
-102.393
-156.794
-218.849
-288.752
-357.247
36.337
30.4075
29.2265
26.9575
25.5678
24.6126
23.9564
23.6597
23.8639
24.4383
25.4125
26.7635
28.4303
30.461
32.8766
35.6285
38.7264
42.1632
45.9178
49.9696
54.295
58.8501
63.5617
68.3172
73.0687
77.7808
82.3372
86.5761
90.3898
93.6319
96.1034
97.5925
97.8922
96.7459
93.8763
88.9659
81.63
71.4917
58.1381
41.1098
19.9398
-5.89813
-36.922
-73.7077
-116.846
-167.028
-224.411
-288.249
-357.226
-421.683
30.1671
23.7009
23.0449
20.4711
18.9689
17.7856
16.9562
16.5137
16.4656
16.838
17.5734
18.6409
20.067
21.8385
23.9421
26.3602
29.0957
32.1184
35.3996
38.9107
42.6182
46.4901
50.4893
54.4483
58.2472
61.8862
65.2755
68.2142
70.5734
72.2406
73.0021
72.6097
70.8425
67.4545
62.1706
54.6738
44.6124
31.6183
15.2834
-4.81762
-29.0965
-58.0006
-91.9601
-131.43
-176.882
-228.904
-287.487
-351.181
-417.394
-475.413
22.9928
16.0655
15.5837
12.7107
11.092
9.77305
8.85639
8.3191
8.10995
8.19431
8.68236
9.53889
10.6779
12.1436
13.9149
15.9722
18.2981
20.8607
23.6274
26.5584
29.6003
32.7168
35.8449
38.9036
41.779
44.3735
46.5692
48.2169
49.1538
49.2151
48.2252
45.9572
42.1678
36.5948
28.9671
18.9967
6.35093
-9.31657
-28.3548
-51.1308
-77.9921
-109.274
-145.299
-186.411
-232.949
-285.281
-343.4
-405.573
-467.522
-517.339
14.971
7.46821
6.86027
3.71625
1.99271
0.52738
-0.526963
-1.19303
-1.55596
-1.63431
-1.47368
-0.956898
-0.106325
1.00688
2.37937
3.99079
5.82343
7.84762
10.0257
12.3094
14.638
16.9728
19.2803
21.4217
23.2492
24.7202
25.7171
26.0511
25.5592
24.0875
21.4386
17.3802
11.6742
4.07099
-5.68556
-17.8797
-32.7901
-50.6969
-71.9065
-96.7071
-125.355
-158.093
-195.137
-236.712
-283.064
-334.43
-390.489
-449.624
-506.319
-546.49
5.48641
-2.27756
-3.07076
-6.5531
-8.22737
-9.78104
-11.0939
-12.0017
-12.6015
-12.9617
-12.9956
-12.8385
-12.4328
-11.7682
-10.8896
-9.81301
-8.56397
-7.17267
-5.66988
-4.10968
-2.56099
-1.07001
0.310839
1.49035
2.33957
2.73117
2.52765
1.5848
-0.257129
-3.1943
-7.41448
-13.1198
-20.5368
-29.9108
-41.4823
-55.4726
-72.1224
-91.6727
-114.344
-140.351
-169.872
-203.047
-239.986
-280.827
-325.764
-375.05
-428.272
-483.402
-533.814
-563.638
-5.60512
-13.2533
-14.2512
-18.0253
-19.7697
-21.4687
-22.9205
-24.1305
-24.9857
-25.6222
-26.1466
-26.395
-26.4529
-26.3587
-26.0788
-25.6349
-25.0649
-24.3876
-23.634
-22.8581
-22.1267
-21.4897
-20.9829
-20.7567
-20.9519
-21.6377
-22.9615
-25.1203
-28.2603
-32.5127
-38.0818
-45.1907
-54.0392
-64.8247
-77.7418
-93.0064
-110.8
-131.281
-154.624
-180.974
-210.43
-243.062
-278.908
-318.021
-360.531
-406.746
-456.522
-507.026
-550.841
-571.273
-18.5994
-25.5526
-26.7387
-30.5559
-32.3795
-34.3233
-35.983
-37.4948
-38.8546
-39.8966
-40.7837
-41.6079
-42.2807
-42.8101
-43.2083
-43.4961
-43.6829
-43.7871
-43.8473
-43.9064
-44.0269
-44.2795
-44.7315
-45.4489
-46.5623
-48.2221
-50.5924
-53.8005
-57.9913
-63.3597
-70.0719
-78.285
-88.1715
-99.9144
-113.69
-129.635
-147.89
-168.591
-191.834
-217.701
-246.245
-277.475
-311.36
-347.903
-387.207
-429.557
-475.095
-520.978
-559.548
-573.647
-32.9142
-39.1519
-40.3795
-44.2193
-46.1909
-48.3963
-50.4235
-52.2261
-53.9578
-55.6956
-57.2248
-58.6123
-59.9376
-61.1873
-62.3455
-63.4266
-64.4246
-65.3728
-66.2904
-67.2009
-68.1653
-69.2484
-70.5176
-72.1082
-74.1417
-76.7103
-79.9429
-84.0225
-89.0985
-95.2825
-102.736
-111.639
-122.139
-134.368
-148.436
-164.477
-182.592
-202.836
-225.275
-249.946
-276.847
-305.958
-337.234
-370.605
-406.038
-444.109
-484.267
-524.614
-558.815
-571.639
-48.3669
-54.0789
-55.2042
-58.8904
-60.9948
-63.5238
-65.9468
-68.3023
-70.5215
-72.739
-74.9797
-77.1871
-79.3061
-81.3529
-83.3594
-85.287
-87.1568
-88.9848
-90.7716
-92.5444
-94.3607
-96.2771
-98.3794
-100.762
-103.506
-106.74
-110.633
-115.303
-120.871
-127.519
-135.389
-144.592
-155.238
-167.437
-181.303
-196.9
-214.275
-233.484
-254.54
-277.426
-302.114
-328.541
-356.615
-386.258
-417.513
-450.484
-483.925
-515.875
-540.653
-553.229
-64.7735
-69.7344
-70.8773
-74.4887
-76.7211
-79.7014
-82.5013
-85.3627
-88.328
-91.2397
-94.2693
-97.283
-100.271
-103.252
-106.167
-109.025
-111.817
-114.534
-117.195
-119.817
-122.428
-125.069
-127.813
-130.792
-134.121
-137.878
-142.16
-147.125
-152.932
-159.681
-167.496
-176.514
-186.844
-198.572
-211.736
-226.397
-242.59
-260.298
-279.502
-300.169
-322.217
-345.541
-369.995
-395.319
-422.121
-449.122
-474.546
-494.753
-504.686
-513.487
-81.8631
-86.2184
-87.2111
-90.7654
-93.2221
-96.4758
-99.8895
-103.36
-107.052
-110.838
-114.677
-118.622
-122.627
-126.601
-130.518
-134.374
-138.127
-141.775
-145.325
-148.778
-152.152
-155.486
-158.845
-162.316
-165.954
-169.872
-174.238
-179.164
-184.755
-191.171
-198.559
-207.014
-216.613
-227.415
-239.486
-252.839
-267.446
-283.294
-300.337
-318.485
-337.632
-357.601
-378.089
-399.193
-420.418
-440.635
-458.272
-470.439
-473.842
-476.411
-99.1257
-102.663
-103.753
-107.296
-110.024
-113.864
-117.787
-122.05
-126.475
-131.239
-136.164
-141.151
-146.2
-151.253
-156.273
-161.193
-165.976
-170.599
-175.046
-179.305
-183.382
-187.283
-191.041
-194.754
-198.532
-202.455
-206.609
-211.132
-216.194
-221.924
-228.439
-235.864
-244.304
-253.839
-264.469
-276.185
-288.978
-302.77
-317.47
-332.979
-349.15
-365.733
-382.613
-399.487
-415.591
-429.92
-440.856
-447.183
-453.669
-454.019
-116.001
-118.784
-119.955
-123.665
-126.684
-131.075
-135.677
-140.743
-146.242
-151.973
-157.983
-164.219
-170.505
-176.791
-183.012
-189.099
-195.012
-200.694
-206.095
-211.189
-215.959
-220.402
-224.544
-228.432
-232.11
-235.662
-239.265
-243.056
-247.147
-251.716
-256.954
-263.004
-269.968
-277.888
-286.815
-296.739
-307.562
-319.204
-331.576
-344.532
-357.907
-371.477
-385.078
-398.208
-410.188
-420.289
-427.333
-430.528
-433.755
-435.032
-131.933
-133.688
-135.149
-139.088
-142.697
-147.712
-153.217
-159.203
-165.703
-172.699
-180.014
-187.506
-195.155
-202.854
-210.454
-217.887
-225.084
-231.937
-238.379
-244.357
-249.828
-254.759
-259.131
-262.977
-266.388
-269.466
-272.294
-274.991
-277.781
-280.871
-284.437
-288.662
-293.712
-299.744
-306.775
-314.74
-323.586
-333.2
-343.432
-354.162
-365.188
-376.142
-386.815
-396.938
-405.817
-412.506
-416.325
-420.474
-421.139
-422.411
-146.044
-147.16
-148.934
-153.176
-157.324
-163.186
-169.522
-176.678
-184.438
-192.696
-201.382
-210.41
-219.623
-228.89
-238.076
-247.065
-255.721
-263.929
-271.59
-278.604
-284.898
-290.405
-295.089
-298.961
-302.035
-304.353
-306.069
-307.397
-308.507
-309.615
-311.025
-313.034
-315.894
-319.727
-324.622
-330.611
-337.562
-345.318
-353.786
-362.795
-371.747
-380.382
-388.848
-396.578
-402.748
-406.693
-409.633
-411.594
-412.682
-413.324
-157.875
-158.419
-160.675
-165.377
-170.169
-177.002
-184.344
-192.582
-201.722
-211.514
-221.826
-232.493
-243.43
-254.491
-265.504
-276.307
-286.692
-296.51
-305.62
-313.878
-321.171
-327.384
-332.423
-336.237
-338.88
-340.452
-341.034
-340.741
-339.838
-338.668
-337.561
-336.869
-336.929
-338.122
-340.654
-344.504
-349.616
-355.896
-363.198
-370.688
-377.824
-384.917
-391.5
-396.903
-400.58
-402.683
-404.623
-405.815
-406.891
-407.189
-166.474
-166.986
-169.823
-175.049
-180.537
-188.352
-196.833
-206.475
-217.023
-228.372
-240.397
-252.952
-265.894
-279.001
-292.118
-305.006
-317.429
-329.185
-340.072
-349.908
-358.515
-365.74
-371.452
-375.552
-377.984
-378.764
-377.976
-375.892
-372.758
-368.845
-364.581
-360.527
-357.316
-355.383
-355.015
-356.473
-359.828
-365.136
-371.427
-377.634
-383.981
-390.012
-394.62
-397.438
-398.811
-400.179
-400.986
-402.105
-403.084
-403.363
-170.763
-172.284
-175.914
-181.832
-188.216
-197.137
-206.566
-217.564
-229.678
-242.829
-256.746
-271.337
-286.439
-301.838
-317.335
-332.644
-347.509
-361.649
-374.767
-386.598
-396.924
-405.55
-412.261
-416.858
-419.215
-419.405
-417.546
-413.695
-408.064
-401.088
-393.304
-385.361
-377.93
-371.842
-367.855
-366.35
-367.528
-371.76
-377.354
-383.866
-390.542
-395.557
-398.055
-398.593
-398.751
-398.807
-399.312
-400.123
-400.875
-401.211
-171.052
-174.255
-178.667
-185.41
-192.672
-202.745
-213.284
-225.644
-239.293
-254.096
-269.961
-286.781
-304.281
-322.259
-340.45
-358.559
-376.274
-393.235
-409.084
-423.469
-436.077
-446.642
-454.924
-460.666
-463.63
-463.702
-460.845
-455.215
-447.107
-436.855
-424.933
-412.064
-399.401
-388.117
-379.269
-373.607
-371.833
-374.545
-380.802
-389.222
-396.743
-400.904
-401.953
-401.462
-400.378
-399.622
-399.178
-399.036
-399.147
-399.436
-167.171
-172.841
-177.841
-185.654
-193.897
-204.967
-216.589
-230.32
-245.434
-261.969
-279.853
-298.866
-318.865
-339.617
-360.796
-382.072
-403.066
-423.368
-442.549
-460.156
-475.749
-488.968
-499.485
-506.92
-510.948
-511.396
-508.239
-501.37
-490.901
-477.191
-460.824
-442.668
-423.717
-405.356
-389.545
-377.862
-371.761
-372.473
-379.656
-390.651
-400.332
-405.4
-406.373
-405.127
-403.374
-401.149
-399.027
-397.524
-396.712
-396.523
-160.276
-167.889
-173.653
-182.418
-191.87
-203.69
-216.372
-231.424
-247.852
-265.997
-285.756
-306.997
-329.567
-353.198
-377.586
-402.35
-427.053
-451.225
-474.348
-495.881
-515.26
-531.933
-545.472
-555.527
-561.665
-563.467
-560.669
-553.052
-540.736
-523.933
-503.102
-478.853
-452.268
-425.382
-400.291
-379.411
-365.65
-361.891
-369.583
-384.812
-399.359
-407.003
-408.808
-406.983
-404.268
-400.814
-397.237
-394.387
-392.654
-391.859
-150.513
-160.122
-166.48
-176.296
-186.532
-199.032
-212.752
-228.768
-246.417
-266.066
-287.59
-310.935
-335.967
-362.505
-390.215
-418.699
-447.482
-476.008
-503.694
-529.888
-553.889
-575.019
-592.667
-606.323
-615.351
-619.269
-617.759
-610.663
-597.481
-578.17
-553.018
-522.783
-488.576
-451.709
-414.144
-379.751
-354.105
-343.722
-350.294
-368.839
-389.183
-402.084
-406.305
-405.241
-402.221
-398.474
-394.341
-390.694
-388.26
-386.692
-139.081
-150.419
-156.688
-167.381
-178.197
-191.163
-205.688
-222.505
-241.139
-262.041
-285.107
-310.385
-337.767
-367.1
-398.11
-430.422
-463.534
-496.816
-529.595
-561.132
-590.628
-617.236
-640.097
-658.448
-671.708
-679.248
-680.445
-674.748
-661.783
-641.203
-612.992
-577.391
-534.948
-486.52
-435.159
-385.103
-343.75
-320.793
-321.831
-340.652
-367.541
-387.277
-399.165
-404.32
-404.321
-401.19
-396.77
-392.32
-389.166
-387.021
-126.088
-138.909
-145.38
-156.51
-167.541
-180.755
-195.641
-212.894
-232.219
-254.079
-278.447
-305.376
-334.84
-366.762
-400.931
-437.034
-474.575
-512.877
-551.203
-588.714
-624.484
-657.529
-686.806
-711.295
-730.131
-742.372
-747.386
-744.714
-733.692
-713.639
-683.774
-643.855
-594.413
-536.607
-471.251
-401.796
-339.739
-302.579
-295.124
-311.791
-344.978
-377.697
-400.218
-411.281
-413.075
-410.196
-405.012
-399.569
-395.64
-393.389
-113.713
-126.021
-133.234
-144.173
-155.075
-168.287
-183.18
-200.522
-220.148
-242.468
-267.659
-295.89
-327.147
-361.376
-398.49
-438.223
-480.138
-523.571
-567.709
-611.631
-654.357
-694.761
-731.61
-763.574
-789.375
-808.094
-818.926
-820.979
-813.363
-795.468
-766.296
-725.077
-671.799
-604.916
-523.785
-438.863
-362.182
-309.89
-286.548
-295.949
-330.456
-370.732
-401.43
-417.813
-421.963
-418.27
-412.898
-407.533
-404.13
-402.805
-102.856
-112.835
-120.753
-131.287
-141.784
-154.702
-169.186
-186.191
-205.669
-228.052
-253.637
-282.575
-315.084
-351.155
-390.789
-433.916
-480.065
-528.596
-578.668
-629.32
-679.508
-728.02
-773.449
-814.12
-848.481
-875.246
-893.244
-901.645
-899.526
-886.173
-860.894
-820.784
-764.985
-688.902
-598.474
-503.875
-421.172
-355.908
-323.374
-321.403
-341.115
-371.617
-398.296
-413.899
-418.103
-416.67
-413.014
-409.757
-407.899
-407.583
-97.6909
-99.7692
-108.541
-118.193
-128.366
-140.734
-154.571
-170.928
-189.794
-211.673
-236.997
-266.152
-299.321
-336.639
-378.248
-424.3
-474.395
-527.91
-583.927
-641.45
-699.471
-756.719
-811.494
-861.886
-906.112
-942.54
-969.565
-986.709
-992.568
-985.526
-964.841
-926.609
-867.621
-786.902
-696.678
-602.645
-514.417
-446.305
-403.786
-384.726
-384.435
-396.006
-408.983
-415.536
-416.168
-412.787
-409.71
-408.074
-408.065
-408.893
-112.338
-90.4806
-97.6634
-105.786
-115.722
-127.471
-140.551
-155.971
-173.893
-195.074
-219.823
-248.639
-281.849
-319.835
-362.807
-411.007
-464.385
-522.409
-584.074
-648.447
-714.466
-780.822
-844.955
-905.087
-959.867
-1007.57
-1045.01
-1072.43
-1088.79
-1088.43
-1070.63
-1037.59
-976.635
-899.084
-812.3
-723.304
-642.377
-573.366
-518.352
-479.84
-456.666
-443.753
-435.739
-428.82
-420.727
-412.86
-408.051
-406.877
-408.006
-409.463
65.4841
60.6422
58.1859
56.8392
56.2376
56.048
56.2621
57.0283
58.1917
59.7684
61.8032
64.3577
67.4137
70.9435
74.9687
79.5019
84.5523
90.134
96.2312
102.852
109.971
117.542
125.462
133.725
142.502
151.533
160.627
169.816
179.028
188.056
196.744
204.998
212.664
219.468
225.185
229.585
232.296
232.967
231.295
226.841
219.151
207.743
192.096
171.58
145.618
113.626
75.0152
29.4541
-25.8433
-80.6444
61.9796
56.8623
54.933
53.194
52.2033
51.6904
51.5405
51.9643
52.8967
54.301
56.1356
58.4025
61.161
64.3908
68.1
72.2981
76.9729
82.1437
87.7906
93.9111
100.488
107.504
114.919
122.429
130.092
138.152
146.363
154.462
162.421
170.157
177.458
184.133
190.035
194.934
198.553
200.686
200.965
199.018
194.541
187.086
176.161
161.274
141.91
117.454
87.3243
50.8524
7.74302
-42.0789
-100.339
-156.636
57.1472
51.5507
50.4708
48.4436
47.3137
46.6558
46.3665
46.5148
47.2321
48.404
50.0776
52.2257
54.7873
57.7977
61.3028
65.2583
69.6642
74.5254
79.8125
85.5139
91.5996
98.0342
104.772
111.726
118.75
125.823
132.896
139.86
146.587
152.902
158.634
163.611
167.644
170.468
171.837
171.529
169.176
164.426
156.964
146.331
132.056
113.657
90.6527
62.4859
28.6057
-11.6417
-58.419
-111.19
-169.793
-224.055
51.3589
45.3146
44.8334
42.5183
41.3997
40.5853
40.2073
40.2822
40.8528
41.9103
43.4565
45.432
47.8674
50.7581
54.0854
57.8413
62.0219
66.604
71.5555
76.8525
82.4545
88.3482
94.5329
100.751
106.927
113.105
119.19
124.961
130.309
135.152
139.3
142.509
144.578
145.283
144.358
141.541
136.515
128.947
118.486
104.711
87.2024
65.5248
39.259
7.95106
-28.8819
-71.8157
-120.883
-174.822
-232.233
-282.467
44.6763
38.216
38.0211
35.4307
34.2587
33.3848
33.0054
33.0808
33.5869
34.4935
35.8776
37.7509
40.0301
42.7381
45.8685
49.397
53.3039
57.5655
62.1451
67.0047
72.0844
77.303
82.7078
88.2517
93.7122
98.9484
103.913
108.532
112.622
115.977
118.463
119.904
120.068
118.693
115.534
110.335
102.769
92.5244
79.2801
62.6802
42.3648
17.9824
-10.8075
-44.3692
-83.0584
-127.294
-177.058
-230.863
-286.024
-330.694
37.1648
30.2422
29.9943
27.2048
25.9546
25.004
24.5531
24.5931
25.0369
25.8773
27.0818
28.7204
30.8071
33.2906
36.1482
39.3634
42.9128
46.7743
50.9057
55.2579
59.7847
64.4305
69.1149
73.7487
78.253
82.5897
86.5659
89.9832
92.7359
94.7008
95.6572
95.3958
93.7225
90.4079
85.1912
77.8077
67.9833
55.4324
39.8702
21.0123
-1.41277
-27.6813
-58.0446
-92.7583
-132.099
-176.359
-225.476
-277.895
-329.604
-367.406
28.3597
21.2117
20.7612
17.7244
16.5614
15.5788
14.9422
14.8061
15.1217
15.771
16.855
18.2655
20.0387
22.1813
24.6688
27.4726
30.5709
33.9362
37.5322
41.2984
45.1782
49.1092
53.0567
56.923
60.5488
63.8329
66.7017
69.0381
70.6069
71.1882
70.659
68.8497
65.5456
60.4957
53.4769
44.2792
32.6319
18.2948
1.05677
-19.3009
-42.9869
-70.1854
-101.061
-135.809
-174.666
-217.918
-265.235
-315
-362.395
-392.302
18.1641
10.9821
10.2594
7.01497
5.82117
4.75376
4.06353
3.71535
3.81369
4.28451
5.00807
6.09464
7.51396
9.23003
11.2389
13.5429
16.0973
18.8844
21.8646
24.9866
28.1935
31.4333
34.6292
37.6218
40.3422
42.7363
44.6148
45.7656
46.1093
45.5129
43.7351
40.5704
35.8454
29.3808
20.9683
10.3927
-2.53148
-17.9914
-36.1661
-57.2176
-81.2788
-108.472
-138.89
-172.642
-209.958
-251.246
-296.101
-342.273
-384.452
-406.49
5.96019
-0.617466
-1.55969
-4.82355
-6.06747
-7.31696
-8.14387
-8.69527
-8.99201
-8.8509
-8.42536
-7.75439
-6.82317
-5.62586
-4.15274
-2.4427
-0.504741
1.63904
3.9449
6.3705
8.85912
11.3122
13.7019
15.9528
17.888
19.3522
20.2551
20.4989
19.8625
18.1563
15.2677
11.0356
5.27878
-2.20472
-11.5752
-22.9644
-36.5511
-52.4804
-70.8676
-91.8207
-115.435
-141.766
-170.848
-202.776
-237.729
-275.999
-317.56
-359.824
-396.705
-412.196
-7.75627
-13.6365
-14.6044
-17.8696
-19.2474
-20.6911
-21.8219
-22.5871
-23.1481
-23.5641
-23.6465
-23.4673
-23.056
-22.427
-21.5822
-20.52
-19.2484
-17.7986
-16.1932
-14.4727
-12.6834
-10.8898
-9.20079
-7.74858
-6.62775
-5.90531
-5.76811
-6.41
-7.89521
-10.3532
-13.981
-18.9447
-25.3922
-33.4457
-43.2389
-54.9164
-68.5789
-84.3229
-102.238
-122.4
-144.848
-169.603
-196.658
-226.009
-257.813
-292.515
-329.748
-367.457
-399.779
-411.965
-22.9158
-28.17
-29.0065
-32.0834
-33.5428
-35.244
-36.6887
-37.9272
-38.8589
-39.6703
-40.3373
-40.8166
-41.0823
-41.122
-40.9708
-40.6043
-40.0549
-39.3236
-38.4295
-37.4207
-36.3462
-35.2791
-34.2974
-33.461
-32.901
-32.7983
-33.2661
-34.3872
-36.356
-39.3316
-43.4147
-48.7292
-55.3895
-63.5438
-73.2979
-84.7135
-97.8877
-112.89
-129.765
-148.537
-169.222
-191.796
-216.212
-242.439
-270.429
-300.781
-332.505
-363.806
-389.802
-401.65
-39.2259
-43.6721
-44.4962
-47.4347
-48.9772
-51.0484
-52.7825
-54.4324
-56.0328
-57.3939
-58.7286
-59.9025
-60.8733
-61.6974
-62.3048
-62.6979
-62.8903
-62.8841
-62.6995
-62.3634
-61.9185
-61.4042
-60.9258
-60.6296
-60.6006
-60.8839
-61.6402
-63.0804
-65.2757
-68.3339
-72.4092
-77.6276
-84.1118
-91.9287
-101.148
-111.855
-124.086
-137.863
-153.203
-170.117
-188.57
-208.492
-229.778
-252.272
-276.298
-301.397
-326.3
-348.282
-363.178
-373.719
-56.3287
-60.2857
-60.9303
-63.7382
-65.4359
-67.7054
-69.9942
-72.1503
-74.3486
-76.503
-78.5065
-80.4595
-82.3098
-83.9547
-85.3901
-86.6096
-87.5877
-88.3283
-88.8429
-89.149
-89.2896
-89.328
-89.3253
-89.3452
-89.4749
-89.9185
-90.7662
-92.0769
-94.0507
-96.8558
-100.583
-105.335
-111.179
-118.221
-126.529
-136.111
-146.992
-159.173
-172.642
-187.355
-203.251
-220.205
-237.991
-256.627
-275.971
-295.173
-312.88
-326.067
-331.306
-336.975
-73.8635
-77.0418
-77.7962
-80.5838
-82.5243
-85.3028
-88.0188
-90.9104
-93.7495
-96.7212
-99.7056
-102.552
-105.269
-107.839
-110.195
-112.275
-114.077
-115.587
-116.797
-117.706
-118.337
-118.73
-118.943
-119.116
-119.354
-119.651
-120.182
-121.169
-122.669
-124.794
-127.711
-131.534
-136.386
-142.307
-149.321
-157.472
-166.745
-177.088
-188.441
-200.761
-213.952
-227.85
-242.27
-257.051
-271.578
-285.06
-296.282
-303.823
-308.742
-310.996
-91.5361
-93.9336
-94.6777
-97.5902
-99.7986
-103.076
-106.394
-109.975
-113.797
-117.668
-121.555
-125.51
-129.338
-132.963
-136.333
-139.401
-142.126
-144.466
-146.395
-147.906
-149.008
-149.739
-150.156
-150.289
-150.206
-150.124
-150.139
-150.301
-150.835
-151.931
-153.708
-156.302
-159.776
-164.221
-169.695
-176.179
-183.64
-192.008
-201.216
-211.162
-221.733
-232.765
-244.072
-255.302
-265.849
-275.093
-282.05
-285.862
-290.52
-292.025
-108.685
-110.035
-110.995
-114.082
-116.814
-120.66
-124.848
-129.307
-134.057
-139.063
-144.2
-149.256
-154.266
-159.124
-163.669
-167.851
-171.6
-174.847
-177.557
-179.695
-181.238
-182.18
-182.56
-182.503
-182.102
-181.36
-180.442
-179.594
-178.921
-178.586
-178.796
-179.69
-181.456
-184.182
-187.869
-192.529
-198.125
-204.571
-211.72
-219.479
-227.742
-236.214
-244.8
-253.236
-260.877
-266.923
-270.763
-274.284
-276.22
-277.857
-124.499
-125.068
-126.282
-129.639
-132.9
-137.522
-142.485
-148.045
-153.997
-160.232
-166.615
-173.074
-179.508
-185.712
-191.649
-197.178
-202.145
-206.469
-210.097
-212.965
-215.021
-216.247
-216.671
-216.338
-215.286
-213.671
-211.672
-209.387
-207.049
-204.895
-203.152
-202.083
-201.827
-202.502
-204.217
-206.965
-210.685
-215.26
-220.606
-226.643
-232.883
-239.195
-245.67
-251.872
-257.283
-261.244
-263.647
-265.866
-267.253
-268.333
-138.28
-138.203
-139.889
-143.668
-147.57
-153.157
-159.14
-165.779
-173.059
-180.754
-188.731
-196.741
-204.741
-212.586
-220.117
-227.174
-233.574
-239.19
-243.933
-247.688
-250.374
-251.924
-252.295
-251.611
-249.986
-247.42
-244.066
-240.144
-235.896
-231.593
-227.529
-223.951
-221.191
-219.529
-219.043
-219.745
-221.593
-224.553
-228.537
-233.004
-237.508
-242.3
-247.095
-251.387
-254.743
-257.072
-259.454
-260.512
-261.554
-262.101
-149.105
-148.885
-151.182
-155.519
-160.163
-166.683
-173.854
-181.875
-190.587
-199.844
-209.499
-219.385
-229.289
-238.996
-248.39
-257.245
-265.388
-272.647
-278.797
-283.719
-287.314
-289.467
-290.119
-289.239
-286.887
-283.183
-278.369
-272.612
-266.137
-259.247
-252.314
-245.834
-240.204
-235.704
-232.619
-231.085
-231.102
-232.548
-235.173
-238.386
-242.039
-245.911
-249.182
-251.488
-252.941
-254.526
-255.785
-256.838
-257.709
-258.022
-156.167
-156.657
-159.777
-164.736
-170.335
-177.98
-186.222
-195.695
-205.985
-217.041
-228.583
-240.479
-252.52
-264.482
-276.104
-287.151
-297.418
-306.638
-314.563
-321.012
-325.823
-328.829
-329.88
-328.945
-326.145
-321.62
-315.326
-307.52
-298.553
-288.799
-278.716
-268.732
-259.393
-251.382
-245.165
-240.989
-238.891
-238.744
-240.439
-243.271
-246.695
-249.695
-251.428
-252.226
-252.464
-252.907
-253.726
-254.634
-255.386
-255.662
-159.339
-161.341
-165.213
-170.951
-177.46
-186.336
-195.794
-206.7
-218.716
-231.546
-245.109
-259.27
-273.698
-288.19
-302.424
-316.11
-328.922
-340.543
-350.725
-359.208
-365.742
-370.118
-372.178
-371.773
-368.799
-363.331
-355.575
-345.822
-334.298
-321.367
-307.442
-293.237
-279.616
-267.267
-256.946
-249.294
-244.541
-242.906
-244.101
-247.239
-250.783
-253.026
-253.949
-253.806
-253.503
-253.169
-253.285
-253.684
-254.107
-254.395
-158.149
-162.421
-167.001
-173.887
-181.446
-191.509
-202.207
-214.62
-228.255
-243.017
-258.745
-275.224
-292.259
-309.562
-326.751
-343.475
-359.35
-373.99
-387.041
-398.149
-406.983
-413.26
-416.725
-417.121
-414.448
-408.769
-400.055
-388.415
-374.2
-357.815
-339.893
-321.093
-302.115
-284.068
-268.334
-255.927
-247.447
-243.572
-244.104
-248.09
-252.751
-255.791
-256.726
-256.526
-255.678
-254.54
-253.554
-252.95
-252.679
-252.733
-153.543
-159.797
-165.369
-173.301
-182.081
-193.276
-205.027
-219.044
-234.327
-250.874
-268.736
-287.685
-307.466
-327.769
-348.239
-368.446
-387.914
-406.176
-422.733
-437.134
-448.952
-457.888
-463.603
-465.8
-464.171
-458.59
-449.092
-435.946
-419.384
-399.772
-377.495
-353.162
-327.953
-303.269
-280.468
-261.181
-246.741
-238.734
-238.576
-244.256
-251.561
-256.735
-258.51
-258.219
-256.815
-254.85
-252.868
-251.382
-250.545
-250.222
-145.628
-154.179
-160.491
-169.566
-179.346
-191.461
-204.459
-219.761
-236.512
-254.959
-274.893
-296.221
-318.796
-342.273
-366.271
-390.285
-413.805
-436.246
-457.038
-475.565
-491.29
-503.733
-512.449
-516.966
-516.958
-512.377
-503.308
-489.421
-470.858
-447.927
-421.252
-391.639
-359.765
-326.881
-294.857
-266.025
-243.126
-230.044
-228.268
-234.91
-244.853
-253.212
-257.148
-257.255
-255.778
-253.605
-251.276
-249.303
-248.043
-247.192
-135.847
-146.178
-152.615
-162.792
-173.48
-186.127
-200.312
-216.751
-234.717
-254.8
-276.803
-300.54
-325.813
-352.446
-380.075
-408.185
-436.163
-463.334
-489.005
-512.455
-532.968
-549.863
-562.597
-570.689
-573.658
-571.124
-562.866
-548.782
-528.96
-503.693
-473.339
-438.195
-398.816
-356.997
-314.772
-274.481
-240.906
-219.634
-214.229
-220.283
-232.705
-243.844
-251.647
-255.477
-256.058
-254.582
-252.208
-249.848
-248.158
-246.867
-124.184
-136.242
-142.885
-153.749
-164.848
-177.986
-192.885
-210.014
-229.125
-250.65
-274.342
-300.247
-328.167
-357.918
-389.185
-421.522
-454.265
-486.613
-517.746
-546.853
-573.082
-595.559
-613.53
-626.247
-632.953
-633.327
-627.169
-614.34
-594.731
-567.977
-534.059
-493.934
-448.681
-398.652
-344.783
-290.043
-243.912
-214.57
-203.381
-207.058
-221.632
-237.928
-250.512
-257.591
-259.882
-258.889
-256.331
-253.423
-251.238
-249.771
-113.018
-124.614
-132.053
-142.862
-153.968
-167.373
-182.542
-200.118
-219.966
-242.455
-267.593
-295.353
-325.653
-358.36
-393.201
-429.747
-467.398
-505.281
-542.392
-577.812
-610.597
-639.687
-664.01
-682.609
-694.683
-699.601
-696.891
-686.213
-667.54
-640.586
-605.394
-562.219
-511.426
-452.338
-385.784
-321.218
-264.343
-225.912
-204.354
-202.283
-215.772
-234.436
-250.232
-259.993
-263.703
-263.148
-260.405
-257.501
-255.617
-254.751
-102.995
-112.507
-120.472
-131.159
-141.966
-155.261
-170.301
-187.835
-207.941
-230.991
-257.042
-286.143
-318.357
-353.649
-391.879
-432.574
-475.167
-518.79
-562.233
-604.491
-644.584
-681.296
-713.164
-739.05
-757.738
-768.245
-770.134
-763.133
-747.042
-722.437
-688.168
-642.31
-585.501
-517.15
-443.182
-370.943
-309.629
-261.42
-233.416
-223.536
-226.944
-238.368
-249.962
-258.195
-261.841
-261.697
-260.092
-258.285
-257.284
-257.174
-98.6194
-100.352
-109.008
-118.888
-129.443
-142.366
-156.936
-174.181
-193.967
-217.044
-243.355
-273.192
-306.777
-343.985
-385.241
-429.903
-477.303
-526.763
-576.782
-626.275
-674.408
-719.537
-759.946
-794.332
-821.161
-838.917
-847.369
-846.069
-834.026
-811.007
-778.663
-728.81
-666.794
-592.098
-517.317
-443.109
-376.722
-324.731
-290.373
-269.3
-259.851
-258.5
-260.697
-262.385
-261.872
-260.029
-258.06
-257.073
-257.03
-257.68
-113.466
-91.8424
-98.659
-107.092
-117.608
-130.029
-143.964
-160.403
-179.805
-202.434
-228.384
-258.324
-292.656
-331.357
-374.778
-422.835
-474.395
-529.072
-585.752
-642.91
-699.44
-753.115
-802.402
-846.133
-882.582
-908.803
-925.331
-931.625
-925.28
-902.752
-870.361
-822.393
-754.222
-681.496
-605.008
-531.792
-466.972
-411.93
-367.17
-333.649
-310.124
-294.275
-282.919
-274.294
-267.126
-261.118
-257.471
-256.585
-257.033
-258.043
-94.3084
-79.7365
-87.4137
-96.6455
-107.374
-119.508
-133.093
-149.166
-167.712
-189.411
-215.006
-245.599
-281.231
-321.801
-367.889
-419.937
-477.263
-538.467
-603.771
-671.018
-737.39
-801.261
-860.759
-914.227
-959.618
-995.912
-1021.17
-1035.49
-1034.49
-1018.16
-970.935
-908.808
-837.459
-760.899
-681.6
-608.747
-540.525
-481.007
-430.768
-390.04
-357.706
-332.003
-311.094
-293.255
-278.055
-266.267
-259.242
-256.922
-258.088
-259.425
-81.4197
-79.2061
-84.3787
-92.5897
-102.934
-114.826
-128.855
-145.716
-165.729
-189.756
-218.225
-252.262
-291.807
-337.351
-389.98
-449.736
-515.882
-586.519
-660.43
-737.026
-813.477
-887.142
-955.833
-1017.11
-1068.8
-1107.55
-1131.72
-1138.38
-1123.32
-1082.94
-1026.99
-959.493
-886.165
-807.985
-730.291
-655.126
-589.203
-530.156
-478.674
-433.944
-395.741
-363.387
-335.853
-312.316
-292.422
-276.438
-265.33
-260.278
-260.886
-262.71
-72.6799
-78.4967
-84.4556
-92.4609
-102.465
-114.625
-130.168
-149.52
-173.355
-201.668
-234.606
-273.321
-319.555
-374.2
-436.863
-506.398
-581.921
-663.474
-749.157
-836.961
-923.647
-1005.41
-1080.64
-1144.66
-1195.82
-1229.67
-1243.05
-1229.69
-1196.41
-1146.2
-1083.57
-1011.58
-935.012
-857.251
-781.809
-708.431
-639.686
-577.298
-520.906
-471.399
-427.826
-390.172
-357.871
-330.359
-307.323
-288.654
-274.814
-266.757
-264.651
-268.004
-66.4625
-74.7527
-82.3458
-91.0898
-101.865
-115.614
-133.481
-155.299
-182.051
-214.031
-252.514
-298.944
-354.295
-418.51
-491.188
-572.776
-663.404
-760.845
-861.822
-961.252
-1055.68
-1143.12
-1221.78
-1288.24
-1333.75
-1353.67
-1345.85
-1317.8
-1272.05
-1213.34
-1144.17
-1069.34
-989.923
-909.806
-829.771
-753.692
-681.298
-614.792
-554.138
-499.854
-451.985
-410.233
-374.542
-344.5
-319.739
-299.913
-284.854
-274.876
-270.969
-275.393
-60.134
-68.131
-76.8022
-86.7418
-98.9484
-114.42
-133.721
-157.873
-188.075
-224.925
-270.091
-324.198
-387.699
-462.544
-550.041
-650.364
-760.802
-875.599
-989.631
-1099.63
-1202.64
-1297.06
-1378.21
-1437.94
-1465.13
-1464.64
-1441.77
-1400.79
-1344.52
-1277.13
-1201.84
-1121.13
-1037.05
-952.199
-868.93
-788.377
-712.334
-641.548
-577.028
-519.022
-467.655
-422.941
-384.875
-353.187
-327.444
-307.176
-291.989
-281.875
-277.93
-280.162
-51.7441
-59.4967
-68.7144
-79.4622
-92.4998
-108.988
-129.564
-156.518
-190.971
-233.377
-284.522
-345.278
-419.109
-509.882
-618.83
-741.764
-871.746
-1002.64
-1130.48
-1252.73
-1367.7
-1465.9
-1536.12
-1569.99
-1577.7
-1560.79
-1523.85
-1470.51
-1405.52
-1329.52
-1247.1
-1160.22
-1071.11
-981.758
-894.349
-810.157
-730.314
-656.196
-588.555
-527.631
-473.652
-426.672
-387.108
-354.502
-328.396
-308.226
-293.505
-284.11
-280.244
-280.603
-42.168
-49.5268
-58.2343
-68.7529
-81.4923
-98.3592
-120.913
-151.23
-189.699
-236.739
-293.724
-364.85
-455.356
-567.521
-699.564
-844.583
-993.982
-1143.17
-1288.11
-1423.25
-1539.95
-1620.16
-1664.25
-1678.09
-1667.47
-1636.61
-1586.46
-1522.62
-1447.9
-1364.92
-1275.67
-1183.62
-1089.97
-996.492
-905.39
-817.967
-735.291
-658.447
-588.478
-525.494