/*--------------------------------*- C++ -*----------------------------------*\
| =========                 |                                                 |
| \\      /  F ield         | OpenFOAM: The Open Source CFD Toolbox           |
|  \\    /   O peration     | Version:  v1912                                 |
|   \\  /    A nd           | Website:  www.openfoam.com                      |
|    \\/     M anipulation  |                                                 |
\*---------------------------------------------------------------------------*/
FoamFile
{
    version     2.0;
    format      ascii;
    class       surfaceScalarField;
    location    "0.21";
    object      phi;
}
// * * * * * * * * * * * * * * * * * * * * * * * * * * * * * * * * * * * * * //

dimensions      [0 3 -1 0 0 0 0];
oriented        oriented;


internalField   nonuniform List<scalar> 
13060
(
0.00531854
0.988926
-0.994244
0.00657848
0.946822
-0.948082
0.00723622
0.901624
-0.902281
0.00759004
0.859078
-0.859432
0.00749518
0.819579
-0.819484
0.00733119
0.782185
-0.782021
0.00703489
0.746371
-0.746075
0.00646903
0.712423
-0.711857
0.00571361
0.67986
-0.679104
0.00501676
0.64843
-0.647733
0.00457865
0.618243
-0.617805
0.00421752
0.589451
-0.58909
0.00388482
0.561862
-0.561529
0.00369243
0.535328
-0.535136
0.0035718
0.509975
-0.509854
0.0034923
0.485559
-0.485479
0.00344808
0.462157
-0.462113
0.00342084
0.439701
-0.439674
0.00340894
0.418163
-0.418151
0.00339983
0.397558
-0.397549
0.00340209
0.377868
-0.37787
0.00346029
0.359009
-0.359068
0.00374575
0.34083
-0.341115
0.00403507
0.323544
-0.323834
0.00414321
0.30727
-0.307379
0.00411661
0.29169
-0.291663
0.00404534
0.276649
-0.276578
0.00384226
0.262414
-0.262211
0.00354974
0.248983
-0.248691
0.00331659
0.236179
-0.235946
0.00311078
0.224023
-0.223817
0.00286799
0.212544
-0.212301
0.00257245
0.201699
-0.201404
0.00224329
0.191375
-0.191046
0.00189576
0.181637
-0.181289
0.00148755
0.172538
-0.172129
0.00103627
0.163999
-0.163548
0.00058093
0.155978
-0.155523
0.000117929
0.148444
-0.147981
-0.000398964
0.141406
-0.140889
-0.000929368
0.134806
-0.134276
-0.0014444
0.128608
-0.128093
-0.00194949
0.122787
-0.122282
-0.00241755
0.117408
-0.11694
-0.00284892
0.112384
-0.111953
-0.00318562
0.107734
-0.107397
-0.00356414
0.103021
-0.102643
-0.00352776
0.0992044
-0.0992407
-0.00252816
0.0902558
-0.0912554
0.0602977
-0.0628259
0.00559341
0.983332
0.00577889
0.946637
0.00518809
0.902214
0.00410871
0.860158
0.00325866
0.820429
0.0023835
0.78306
0.00163744
0.747117
0.00127204
0.712788
0.00110267
0.680029
0.000918909
0.648614
0.000563319
0.618599
0.000250934
0.589763
4.99266e-05
0.562063
-0.000204035
0.535582
-0.000447624
0.510218
-0.00066029
0.485771
-0.000835627
0.462332
-0.000983335
0.439849
-0.00110196
0.418282
-0.00120336
0.39766
-0.00130286
0.377967
-0.00143542
0.359142
-0.00182747
0.341222
-0.0023434
0.32406
-0.00257686
0.307504
-0.00263333
0.291746
-0.00274935
0.276765
-0.00280846
0.262473
-0.00276329
0.248938
-0.00282669
0.236243
-0.0030073
0.224204
-0.00319346
0.21273
-0.00336786
0.201874
-0.00357057
0.191578
-0.00382072
0.181887
-0.00406813
0.172785
-0.0043121
0.164243
-0.00457447
0.156241
-0.0048452
0.148714
-0.00509382
0.141655
-0.005325
0.135037
-0.00551921
0.128803
-0.00566255
0.12293
-0.00573782
0.117483
-0.00572897
0.112375
-0.00561987
0.107624
-0.00552274
0.102924
-0.0047954
0.098477
-0.00318457
0.088645
0.0571131
0.00452566
0.978807
0.00483715
0.946325
0.00413961
0.902912
0.00281837
0.861479
0.00163266
0.821615
0.000528072
0.784165
-0.000703729
0.748349
-0.00220226
0.714286
-0.00361009
0.681437
-0.00473691
0.649741
-0.00552741
0.619389
-0.00628646
0.590522
-0.0069942
0.562771
-0.0075143
0.536102
-0.00793115
0.510635
-0.00828825
0.486128
-0.00859185
0.462636
-0.00884814
0.440105
-0.00906863
0.418502
-0.00926091
0.397852
-0.00941501
0.378122
-0.00948987
0.359217
-0.00921472
0.340947
-0.00887098
0.323717
-0.00885599
0.307489
-0.00891699
0.291807
-0.00890943
0.276758
-0.00902795
0.262592
-0.00924226
0.249153
-0.00933626
0.236337
-0.00935075
0.224218
-0.00939274
0.212772
-0.00945989
0.201941
-0.00952029
0.191638
-0.00955681
0.181923
-0.00961318
0.172841
-0.00967988
0.16431
-0.00972132
0.156282
-0.00973821
0.148731
-0.00972449
0.141641
-0.00965503
0.134968
-0.00953148
0.128679
-0.00934538
0.122744
-0.00906909
0.117207
-0.00869528
0.112001
-0.00820608
0.107135
-0.00759456
0.102312
-0.00627669
0.0971592
-0.00395109
0.0863194
0.0531621
0.00378427
0.975022
0.00255624
0.947553
0.000607149
0.904861
-0.00127255
0.863359
-0.00324284
0.823585
-0.00491254
0.785835
-0.0062226
0.749659
-0.0071763
0.71524
-0.00789864
0.682159
-0.00870783
0.65055
-0.0095752
0.620257
-0.010205
0.591152
-0.0107808
0.563346
-0.0113791
0.5367
-0.0119252
0.511181
-0.0124128
0.486616
-0.0128377
0.463061
-0.0132065
0.440474
-0.0135214
0.418817
-0.0137867
0.398117
-0.0140183
0.378353
-0.0142666
0.359465
-0.0147615
0.341442
-0.0153116
0.324267
-0.0155404
0.307718
-0.0156154
0.291882
-0.0157149
0.276857
-0.0156887
0.262565
-0.015536
0.249
-0.0154687
0.236269
-0.0154775
0.224227
-0.0154584
0.212753
-0.0153931
0.201876
-0.0153189
0.191564
-0.0152562
0.181861
-0.0151432
0.172729
-0.0149828
0.164149
-0.014795
0.156094
-0.0145625
0.148499
-0.0142701
0.141349
-0.0139075
0.134605
-0.0134539
0.128225
-0.0129058
0.122196
-0.0122579
0.116559
-0.0114803
0.111224
-0.0105012
0.106156
-0.0094633
0.101275
-0.00773965
0.0954355
-0.00469972
0.0832795
0.0484623
0.00242386
0.972599
0.00106469
0.948913
-0.00121156
0.907137
-0.00296475
0.865112
-0.00496102
0.825581
-0.0069629
0.787836
-0.00898818
0.751685
-0.0110116
0.717264
-0.0129883
0.684136
-0.014602
0.652164
-0.0158419
0.621496
-0.0171087
0.592419
-0.0182004
0.564438
-0.0190602
0.53756
-0.0197976
0.511919
-0.0204326
0.487251
-0.0209802
0.463608
-0.0214497
0.440943
-0.0218463
0.419214
-0.0221727
0.398444
-0.0224242
0.378605
-0.0225551
0.359596
-0.0223317
0.341218
-0.0219662
0.323901
-0.0218988
0.30765
-0.0219472
0.29193
-0.0218861
0.276796
-0.0218888
0.262568
-0.0219923
0.249103
-0.0219612
0.236238
-0.0217869
0.224053
-0.0215936
0.21256
-0.0213994
0.201681
-0.0211616
0.191326
-0.020857
0.181556
-0.0205352
0.172407
-0.0201775
0.163791
-0.0197523
0.155669
-0.0192575
0.148004
-0.0186861
0.140777
-0.0180244
0.133944
-0.0172718
0.127473
-0.0164221
0.121347
-0.0154442
0.115581
-0.0143528
0.110132
-0.013123
0.104926
-0.0116569
0.0998084
-0.0093974
0.093176
-0.00553953
0.0794216
0.0429228
0.00120891
0.97139
-0.00155734
0.951679
-0.00469983
0.91028
-0.00756122
0.867973
-0.0103657
0.828386
-0.0126417
0.790112
-0.0144978
0.753541
-0.0159993
0.718765
-0.0172661
0.685403
-0.01865
0.653548
-0.01997
0.622817
-0.0209499
0.593399
-0.0218731
0.565361
-0.0228048
0.538492
-0.0236433
0.512757
-0.0243922
0.488
-0.0250474
0.464263
-0.0256184
0.441514
-0.0261103
0.419705
-0.0265311
0.398864
-0.0268934
0.378967
-0.0272476
0.35995
-0.0278711
0.341842
-0.0285216
0.324552
-0.0287372
0.307866
-0.0287258
0.291919
-0.0287605
0.276831
-0.0286447
0.262452
-0.0283144
0.248773
-0.0280406
0.235964
-0.0278346
0.223847
-0.0275611
0.212287
-0.0271946
0.201315
-0.0267845
0.190916
-0.0263538
0.181125
-0.0258373
0.17189
-0.0252358
0.16319
-0.0245642
0.154997
-0.0238111
0.147251
-0.0229666
0.139933
-0.0220257
0.133003
-0.0209692
0.126416
-0.0197948
0.120172
-0.018512
0.114298
-0.0171047
0.108725
-0.0156572
0.103479
-0.013731
0.0978823
-0.0109964
0.0904414
-0.00632121
0.0747464
0.0366016
0.000368822
0.971021
-0.00305459
0.955102
-0.0064993
0.913724
-0.00926316
0.870737
-0.0120041
0.831127
-0.0148213
0.79293
-0.0176885
0.756408
-0.0204132
0.72149
-0.0228571
0.687847
-0.0247933
0.655484
-0.0265028
0.624526
-0.0282907
0.595186
-0.0297932
0.566864
-0.0310147
0.539713
-0.0320768
0.513819
-0.0330023
0.488925
-0.0338005
0.465062
-0.0344824
0.442196
-0.0350527
0.420276
-0.0355093
0.399321
-0.03584
0.379298
-0.0360059
0.360116
-0.035748
0.341584
-0.0353008
0.324105
-0.0351666
0.307732
-0.0351495
0.291902
-0.0349519
0.276633
-0.0347701
0.262271
-0.0346936
0.248697
-0.0344642
0.235735
-0.0340393
0.223422
-0.0335445
0.211792
-0.0330155
0.200786
-0.0324117
0.190312
-0.0317057
0.18042
-0.0309497
0.171134
-0.0301306
0.162371
-0.0292187
0.154085
-0.028213
0.146245
-0.0271086
0.138829
-0.025899
0.131793
-0.0245977
0.125115
-0.0232118
0.118786
-0.0217068
0.112793
-0.0200862
0.107104
-0.0183934
0.101786
-0.0161123
0.0956013
-0.0127559
0.0870849
-0.00712423
0.0691147
0.0294774
-0.00065251
0.971673
-0.00554761
0.959997
-0.0100049
0.918182
-0.0141103
0.874843
-0.0175468
0.834563
-0.0203802
0.795763
-0.0228775
0.758905
-0.0248875
0.7235
-0.0267944
0.689754
-0.0287164
0.657406
-0.0304156
0.626225
-0.0317381
0.596509
-0.033048
0.568174
-0.0343321
0.540997
-0.0354822
0.514969
-0.036512
0.489955
-0.0374116
0.465961
-0.0381923
0.442977
-0.0388629
0.420946
-0.0394314
0.39989
-0.039913
0.379779
-0.040365
0.360568
-0.041076
0.342295
-0.0417948
0.324823
-0.0419941
0.307931
-0.0418629
0.291771
-0.041753
0.276523
-0.0414931
0.262011
-0.0409517
0.248155
-0.0403857
0.235169
-0.0398705
0.222907
-0.0392764
0.211198
-0.0385488
0.200058
-0.0377408
0.189504
-0.0368944
0.179573
-0.0359426
0.170182
-0.0348852
0.161313
-0.0337377
0.152938
-0.0324947
0.145002
-0.0311552
0.137489
-0.0297214
0.130359
-0.028182
0.123576
-0.0265341
0.117138
-0.0248192
0.111079
-0.023123
0.105408
-0.0210426
0.0997055
-0.0183838
0.0929425
-0.0143701
0.0830712
-0.00784002
0.0625847
0.0216374
-0.00119322
0.972867
-0.00658913
0.965393
-0.0112057
0.922798
-0.0151487
0.878786
-0.0190301
0.838445
-0.0227
0.799433
-0.0259989
0.762204
-0.0292533
0.726754
-0.0321456
0.692646
-0.0345239
0.659784
-0.0368673
0.628569
-0.0391704
0.598812
-0.0411219
0.570125
-0.0427613
0.542637
-0.0441923
0.5164
-0.0454437
0.491206
-0.0465228
0.46704
-0.0474399
0.443894
-0.0482031
0.421709
-0.0488068
0.400493
-0.0492311
0.380204
-0.0494155
0.360752
-0.0491303
0.34201
-0.0485816
0.324275
-0.0483099
0.307659
-0.0481671
0.291628
-0.0477946
0.276151
-0.0473526
0.261569
-0.0470216
0.247824
-0.0465533
0.234701
-0.045831
0.222185
-0.0449774
0.210344
-0.0440687
0.19915
-0.0430737
0.188509
-0.0419501
0.178449
-0.040757
0.168989
-0.0394924
0.160049
-0.0381329
0.151578
-0.0366817
0.143551
-0.0351344
0.135942
-0.0334883
0.128713
-0.0317715
0.121859
-0.0300224
0.115389
-0.028201
0.109257
-0.0263272
0.103534
-0.0238415
0.0972199
-0.0206771
0.0897781
-0.0156787
0.0780728
-0.00805139
0.0549573
0.013586
-0.00252176
0.975388
-0.00902833
0.9719
-0.0145557
0.928326
-0.0196127
0.883843
-0.0238196
0.842651
-0.027291
0.802904
-0.0304391
0.765352
-0.0331231
0.729438
-0.0355716
0.695094
-0.0380626
0.662275
-0.0401396
0.630645
-0.0418458
0.600518
-0.0435672
0.571847
-0.0452291
0.544299
-0.0467415
0.517913
-0.0481064
0.492571
-0.049304
0.468238
-0.0503426
0.444932
-0.0512302
0.422597
-0.0519731
0.401236
-0.0525925
0.380823
-0.0531509
0.361311
-0.0539105
0.342769
-0.0546728
0.325037
-0.0548599
0.307847
-0.0545876
0.291356
-0.0542935
0.275857
-0.0538699
0.261145
-0.0530913
0.247046
-0.0521874
0.233797
-0.0513172
0.221314
-0.0503784
0.209405
-0.0492835
0.198055
-0.0480792
0.187305
-0.0468346
0.177205
-0.0454844
0.167639
-0.0440243
0.158589
-0.0424756
0.15003
-0.0408368
0.141912
-0.0391155
0.134221
-0.0373226
0.12692
-0.0354483
0.119985
-0.0334745
0.113415
-0.0316105
0.107393
-0.0293892
0.101313
-0.0266589
0.0944896
-0.0227275
0.0858466
-0.0161649
0.0715102
-0.00641904
0.0452115
0.00716692
-0.00313349
0.978522
-0.00943026
0.978197
-0.0147825
0.933678
-0.0198443
0.888904
-0.0245006
0.847308
-0.0288533
0.807257
-0.032878
0.769377
-0.0366
0.73316
-0.0400171
0.698512
-0.0430347
0.665293
-0.0460435
0.633654
-0.0488765
0.603351
-0.051296
0.574266
-0.0533889
0.546392
-0.0552449
0.519769
-0.0568808
0.494207
-0.0583085
0.469666
-0.059532
0.446156
-0.0605532
0.423618
-0.0613629
0.402046
-0.061937
0.381397
-0.0622067
0.36158
-0.061952
0.342515
-0.0613199
0.324405
-0.0608599
0.307387
-0.060582
0.291078
-0.0600492
0.275324
-0.0593242
0.26042
-0.0586972
0.246419
-0.0579817
0.233081
-0.0569796
0.220312
-0.0557792
0.208205
-0.0545069
0.196782
-0.053163
0.185961
-0.0516781
0.17572
-0.0501143
0.166075
-0.0484861
0.15696
-0.0467735
0.148317
-0.0449883
0.140127
-0.0431288
0.132361
-0.0411907
0.124982
-0.0392002
0.117994
-0.0372845
0.1115
-0.0352391
0.105348
-0.032605
0.0986789
-0.0293069
0.0911916
-0.0242083
0.0807479
-0.0157017
0.0630036
-0.00408337
0.0335932
0.00308356
-0.00409713
0.982619
-0.0115079
0.985607
-0.0178236
0.939994
-0.0234725
0.894553
-0.0282017
0.852037
-0.032405
0.811461
-0.0360891
0.773061
-0.0394265
0.736498
-0.0425829
0.701668
-0.0454813
0.668191
-0.0479736
0.636147
-0.0502116
0.605589
-0.0524335
0.576488
-0.0545675
0.548526
-0.0565363
0.521737
-0.058327
0.495998
-0.0599223
0.471261
-0.0613229
0.447557
-0.0625211
0.424816
-0.0635215
0.403046
-0.0643415
0.382217
-0.0650412
0.36228
-0.0658529
0.343326
-0.0666837
0.325236
-0.0669487
0.307651
-0.0665836
0.290713
-0.066106
0.274846
-0.0655468
0.259861
-0.0645881
0.24546
-0.0633714
0.231865
-0.0621486
0.219089
-0.0608935
0.20695
-0.05949
0.195379
-0.0579513
0.184422
-0.0563816
0.17415
-0.054725
0.164419
-0.0529644
0.1552
-0.0511297
0.146482
-0.0492175
0.138215
-0.0472386
0.130382
-0.0452119
0.122955
-0.0431924
0.115975
-0.0412076
0.109515
-0.0387119
0.102852
-0.0357423
0.0957094
-0.0314838
0.086933
-0.0248936
0.0741577
-0.0150723
0.0531823
-0.00251406
0.021035
0.000569491
-0.00425011
0.986869
-0.0109493
0.992306
-0.0168659
0.94591
-0.0225234
0.900211
-0.0276578
0.857171
-0.0325319
0.816335
-0.0372025
0.777731
-0.0415244
0.74082
-0.0453455
0.705489
-0.0490067
0.671852
-0.052672
0.639812
-0.0561021
0.609019
-0.0591349
0.579521
-0.0618336
0.551224
-0.0642534
0.524157
-0.0664242
0.498169
-0.0683437
0.47318
-0.0700094
0.449222
-0.0714195
0.426227
-0.0725632
0.40419
-0.0734108
0.383065
-0.0738998
0.362769
-0.073822
0.343248
-0.0732157
0.324629
-0.0726035
0.307039
-0.0722181
0.290327
-0.0716161
0.274244
-0.0706659
0.258911
-0.0697471
0.244541
-0.0688179
0.230935
-0.0676112
0.217883
-0.0661356
0.205474
-0.064559
0.193802
-0.062947
0.18281
-0.0611977
0.172401
-0.0593641
0.162585
-0.057484
0.15332
-0.0555339
0.144532
-0.0535316
0.136212
-0.0514767
0.128327
-0.049404
0.120883
-0.0474604
0.114031
-0.0452069
0.107261
-0.0425195
0.100165
-0.0390364
0.0922264
-0.0338327
0.0817293
-0.0251792
0.0655043
-0.0122893
0.0402924
-0.00146545
0.0102111
-0.000895959
-0.00436904
0.991238
-0.0123495
1.00029
-0.0186135
0.952174
-0.0246105
0.906208
-0.0298079
0.862369
-0.03445
0.820977
-0.0385083
0.78179
-0.0424046
0.744716
-0.0461913
0.709276
-0.0497483
0.675409
-0.0528099
0.642874
-0.0556637
0.611873
-0.058527
0.582384
-0.0613133
0.554011
-0.0639293
0.526773
-0.0663374
0.500577
-0.0685087
0.475352
-0.0704482
0.451162
-0.0721371
0.427915
-0.0735646
0.405617
-0.0747371
0.384237
-0.0757046
0.363737
-0.076664
0.344208
-0.0776525
0.325618
-0.078158
0.307545
-0.0778689
0.290038
-0.0772685
0.273644
-0.0766402
0.258282
-0.0756211
0.243522
-0.074196
0.22951
-0.0726628
0.216349
-0.0711334
0.203945
-0.0695045
0.192173
-0.0677172
0.181023
-0.0659052
0.170589
-0.0640406
0.160721
-0.0620882
0.151367
-0.0600856
0.14253
-0.058028
0.134155
-0.0559328
0.126232
-0.0540009
0.118951
-0.051885
0.111915
-0.0493548
0.104731
-0.0462498
0.0970599
-0.0418946
0.0878712
-0.0348426
0.0746772
-0.0236342
0.0542959
-0.00796828
0.0246265
-0.0010205
0.0032633
-0.00191646
-0.00389517
0.995133
-0.0105154
1.00691
-0.0164636
0.958123
-0.0220308
0.911775
-0.0272627
0.867601
-0.0325925
0.826307
-0.0377274
0.786925
-0.0424971
0.749485
-0.0469678
0.713747
-0.0512045
0.679646
-0.0555981
0.647267
-0.0597826
0.616058
-0.0635876
0.586189
-0.0670912
0.557514
-0.0703023
0.529984
-0.0732314
0.503506
-0.0758765
0.477997
-0.0782264
0.453512
-0.080261
0.42995
-0.0819697
0.407326
-0.0833202
0.385588
-0.084252
0.364668
-0.0846077
0.344563
-0.0842508
0.325261
-0.0836425
0.306936
-0.0832391
0.289635
-0.0827153
0.27312
-0.0817042
0.257271
-0.0805505
0.242368
-0.0794229
0.228383
-0.0780941
0.215021
-0.0764479
0.202299
-0.0746312
0.190357
-0.0728122
0.179204
-0.070886
0.168663
-0.0688712
0.158706
-0.0668381
0.149334
-0.0647631
0.140455
-0.062673
0.132065
-0.0607123
0.124271
-0.0586793
0.116918
-0.0562952
0.109531
-0.0535592
0.101995
-0.0498671
0.0933678
-0.0438282
0.0818322
-0.0335032
0.0643523
-0.0177048
0.0384975
-0.00398202
0.0109036
-0.000235021
-0.000483699
-0.00215148
-0.00304398
0.998177
-0.0103038
1.01417
-0.0166133
0.964432
-0.0225098
0.917671
-0.027703
0.872794
-0.0323754
0.830979
-0.0368864
0.791436
-0.0412793
0.753878
-0.0456693
0.718136
-0.0499285
0.683905
-0.053675
0.651014
-0.0573013
0.619684
-0.0610099
0.589898
-0.0646394
0.561144
-0.0680912
0.533436
-0.0713538
0.506769
-0.0743763
0.481019
-0.0771221
0.456258
-0.0795694
0.432397
-0.0817023
0.409459
-0.0835087
0.387394
-0.0850194
0.366179
-0.0863617
0.345906
-0.0876747
0.326574
-0.0886279
0.30789
-0.0886986
0.289705
-0.0881713
0.272593
-0.0875412
0.256641
-0.0866009
0.241428
-0.085128
0.22691
-0.0833567
0.213249
-0.0815617
0.200504
-0.0797465
0.188541
-0.0777661
0.177224
-0.0757468
0.166643
-0.0737369
0.156696
-0.0716756
0.147273
-0.0696017
0.138381
-0.0675946
0.130058
-0.0656139
0.12229
-0.0633656
0.11467
-0.0608116
0.106977
-0.057468
0.0986515
-0.0521257
0.0880254
-0.0428383
0.0725448
-0.0280909
0.049605
-0.0103808
0.0207874
-0.00210018
0.00262306
-2.93936e-05
-0.00255449
-0.00218087
-0.00201684
1.00019
-0.00724463
1.01939
-0.0125639
0.969751
-0.0180309
0.923138
-0.0232173
0.87798
-0.0287608
0.836523
-0.0340283
0.796703
-0.0391888
0.759039
-0.0440856
0.723033
-0.0489446
0.688764
-0.0541575
0.656227
-0.0591951
0.624722
-0.0638842
0.594587
-0.068347
0.565607
-0.0725838
0.537673
-0.0765845
0.510769
-0.0802854
0.48472
-0.0836373
0.459609
-0.086625
0.435385
-0.0892316
0.412066
-0.0914222
0.389585
-0.0931522
0.367909
-0.094293
0.347046
-0.094561
0.326842
-0.0942502
0.307579
-0.0940093
0.289464
-0.0937431
0.272327
-0.092914
0.255812
-0.0916606
0.240175
-0.0903374
0.225587
-0.0889074
0.211819
-0.0871744
0.198771
-0.0851424
0.186509
-0.0830942
0.175175
-0.0810057
0.164555
-0.0788381
0.154528
-0.0767028
0.145137
-0.0746098
0.136288
-0.0726164
0.128064
-0.0704628
0.120137
-0.0680021
0.112209
-0.0648795
0.103854
-0.0600401
0.0938121
-0.0516443
0.0796296
-0.0377405
0.0586409
-0.0182135
0.030078
-0.00468558
0.00725944
-0.00062565
-0.00143686
0.00019223
-0.00337237
-0.00198864
-0.000305167
1.0005
-0.00613575
1.02523
-0.0113273
0.974943
-0.0166941
0.928505
-0.0215334
0.882819
-0.0261897
0.841179
-0.0307993
0.801313
-0.0354823
0.763722
-0.0405343
0.728085
-0.0454905
0.69372
-0.0499794
0.660716
-0.0545104
0.629253
-0.059227
0.599303
-0.0639075
0.570287
-0.0684619
0.542227
-0.0728457
0.515153
-0.077
0.488875
-0.0808941
0.463504
-0.0844787
0.43897
-0.0876775
0.415264
-0.090475
0.392382
-0.0928693
0.370303
-0.0949401
0.349117
-0.0968685
0.32877
-0.0985618
0.309272
-0.0993952
0.290298
-0.0992461
0.272177
-0.0987399
0.255306
-0.0979814
0.239416
-0.0966513
0.224257
-0.0947609
0.209929
-0.0926546
0.196664
-0.0905863
0.184441
-0.0883878
0.172977
-0.0860929
0.16226
-0.0838775
0.152313
-0.0817287
0.142989
-0.0796792
0.134238
-0.0775642
0.125949
-0.0751582
0.117731
-0.0721693
0.10922
-0.0677771
0.0994622
-0.0600934
0.0861284
-0.0466489
0.0661852
-0.0263461
0.0383382
-0.00874315
0.012475
-0.00184173
0.000358029
8.85296e-05
-0.00336713
0.000255707
-0.00353954
-0.00173293
0.00139112
0.999108
-0.00240836
1.02902
-0.00631302
0.978848
-0.0107067
0.932899
-0.0153479
0.887461
-0.0206332
0.846464
-0.0259844
0.806664
-0.03142
0.769157
-0.0365688
0.733234
-0.042072
0.699224
-0.0480326
0.666676
-0.0539592
0.635179
-0.059663
0.605007
-0.0652235
0.575848
-0.0706534
0.547657
-0.0759083
0.520408
-0.0809632
0.493929
-0.0857344
0.468275
-0.0901068
0.443342
-0.0940436
0.419201
-0.0974917
0.39583
-0.100431
0.373243
-0.102746
0.351432
-0.104169
0.330194
-0.1046
0.309703
-0.104821
0.290519
-0.105005
0.272361
-0.104666
0.254966
-0.103579
0.23833
-0.102106
0.222784
-0.10051
0.208332
-0.098701
0.194855
-0.0964405
0.182181
-0.0940204
0.170557
-0.0916486
0.159888
-0.0892724
0.149937
-0.0869114
0.140628
-0.0846772
0.132004
-0.0822325
0.123505
-0.079315
0.114813
-0.0752166
0.105122
-0.0681676
0.0924132
-0.0550781
0.0730388
-0.0343057
0.0454128
-0.0138568
0.0178892
-0.00391176
0.00252997
-0.000637356
-0.00291637
0.000220716
-0.0042252
0.000206923
-0.00352575
-0.00152601
0.00240937
0.996699
-0.000545131
1.03198
-0.004171
0.982473
-0.00819188
0.93692
-0.0121683
0.891437
-0.0164385
0.850734
-0.0208256
0.811051
-0.0257151
0.774047
-0.0311069
0.738626
-0.0365184
0.704635
-0.0416259
0.671784
-0.0470057
0.640559
-0.0527246
0.610726
-0.0585692
0.581692
-0.0644154
0.553503
-0.0701866
0.526179
-0.0757789
0.499522
-0.0811426
0.473638
-0.0862147
0.448414
-0.0909183
0.423905
-0.0951995
0.400111
-0.0989783
0.377022
-0.102207
0.354661
-0.105117
0.333103
-0.107892
0.312478
-0.109896
0.292523
-0.110668
0.273133
-0.110562
0.25486
-0.110074
0.237842
-0.109073
0.221783
-0.107315
0.206574
-0.1049
0.192441
-0.102358
0.179638
-0.0997632
0.167962
-0.0969978
0.157123
-0.0943461
0.147285
-0.0917946
0.138076
-0.0891599
0.12937
-0.0862312
0.120576
-0.082316
0.110898
-0.0756942
0.0984999
-0.062993
0.079712
-0.0418282
0.0518739
-0.0193612
0.0229459
-0.00665321
0.00518127
-0.00220326
-0.00191998
-0.000800168
-0.00431946
-0.00026853
-0.00475684
-3.05324e-05
-0.00376375
-0.00155654
0.00549447
0.991204
0.00399071
1.03348
0.00176278
0.984701
-0.00131888
0.940002
-0.00520645
0.895325
-0.0099307
0.855459
-0.0147958
0.815916
-0.0199327
0.779184
-0.0252335
0.743927
-0.0309967
0.710398
-0.0375192
0.678306
-0.044189
0.647229
-0.0507871
0.617324
-0.0574565
0.588362
-0.0641547
0.560202
-0.0708233
0.532848
-0.0773909
0.506089
-0.0837779
0.480025
-0.0898983
0.454535
-0.0956406
0.429647
-0.100885
0.405356
-0.105512
0.381649
-0.109491
0.35864
-0.112632
0.336244
-0.114489
0.314335
-0.115494
0.293529
-0.116453
0.274092
-0.116967
0.255375
-0.116525
0.237399
-0.11518
0.220438
-0.113368
0.204761
-0.111384
0.190457
-0.10886
0.177114
-0.105738
0.16484
-0.102693
0.154078
-0.0995801
0.144172
-0.0963676
0.134864
-0.0930954
0.126097
-0.0890018
0.116482
-0.0824962
0.104392
-0.0702526
0.0862563
-0.048868
0.0583275
-0.024679
0.0276849
-0.00968942
0.00795629
-0.00393891
-0.000569235
-0.00198621
-0.00387269
-0.00118388
-0.00512179
-0.000732691
-0.00520802
-0.000312577
-0.00418386
-0.00186912
0.00573036
0.985474
0.00546211
1.03375
0.00388859
0.986275
0.0015072
0.942383
-0.00149646
0.898328
-0.00469549
0.858658
-0.00856946
0.81979
-0.0132727
0.783887
-0.0184866
0.749141
-0.0238949
0.715807
-0.029336
0.683747
-0.0352798
0.653172
-0.0417983
0.623843
-0.0486544
0.595218
-0.0557259
0.567273
-0.0629217
0.540044
-0.0701234
0.513291
-0.0772184
0.48712
-0.0840961
0.461412
-0.090666
0.436217
-0.0968227
0.411512
-0.102482
0.387309
-0.107513
0.363671
-0.111868
0.340599
-0.11601
0.318477
-0.119719
0.297237
-0.122073
0.276446
-0.122962
0.256263
-0.123006
0.237444
-0.122484
0.219916
-0.121226
0.203503
-0.118825
0.188056
-0.115718
0.174007
-0.112367
0.16149
-0.10862
0.15033
-0.104706
0.140258
-0.100671
0.130829
-0.095687
0.121113
-0.0885327
0.109328
-0.0764163
0.0922759
-0.0551442
0.0649842
-0.029469
0.0326522
-0.0120387
0.0102546
-0.00457995
0.000497578
-0.00181744
-0.00333174
-0.000789554
-0.00490057
-0.000485465
-0.00542588
-0.000437846
-0.00525564
-0.000294366
-0.00432734
-0.00216349
0.0101458
0.975328
0.0105422
1.03335
0.0102898
0.986527
0.00802176
0.944651
0.00545371
0.900896
0.00188077
0.862231
-0.00240048
0.824071
-0.00690932
0.788396
-0.0117357
0.753967
-0.0173183
0.721389
-0.0239106
0.69034
-0.0308602
0.660122
-0.0379567
0.630939
-0.0454099
0.602671
-0.0531712
0.575034
-0.0611437
0.548016
-0.0692487
0.521396
-0.0773619
0.495234
-0.0853722
0.469423
-0.0931492
0.443994
-0.100555
0.418918
-0.107423
0.394177
-0.113561
0.369808
-0.118862
0.3459
-0.122991
0.322607
-0.125624
0.299869
-0.127642
0.278465
-0.129307
0.257928
-0.130181
0.238318
-0.129729
0.219465
-0.127996
0.20177
-0.12579
0.18585
-0.123119
0.171337
-0.119559
0.15793
-0.115069
0.14584
-0.109688
0.134877
-0.103454
0.124594
-0.0951182
0.112778
-0.0821413
0.0963511
-0.0601735
0.0703081
-0.0331059
0.0379166
-0.0125845
0.0121308
-0.00254396
0.000214015
0.00202089
-0.00406727
0.00367703
-0.00498788
0.0037483
-0.00497184
0.00287024
-0.00454782
0.00156484
-0.00395025
0.000430181
-0.00319268
-0.00173331
0.00881126
0.966517
0.0100354
1.03213
0.0104217
0.986141
0.00978246
0.94529
0.00857425
0.902104
0.00644086
0.864364
0.0036202
0.826892
-0.000120305
0.792136
-0.00485061
0.758697
-0.00995924
0.726498
-0.0151499
0.69553
-0.0210634
0.666036
-0.0278271
0.637703
-0.0352368
0.610081
-0.0431673
0.582965
-0.0515143
0.556363
-0.0601586
0.530041
-0.068953
0.504028
-0.0777416
0.478211
-0.0863752
0.452628
-0.0947102
0.427253
-0.102606
0.402073
-0.109909
0.377112
-0.116536
0.352527
-0.122543
0.328613
-0.128321
0.305648
-0.132817
0.28296
-0.135655
0.260767
-0.136948
0.239611
-0.137185
0.219702
-0.136814
0.201399
-0.135086
0.184122
-0.131643
0.167893
-0.127237
0.153524
-0.121689
0.140291
-0.11462
0.127808
-0.104879
0.114853
-0.0896533
0.0975529
-0.0649167
0.0716146
-0.0345033
0.0398947
-0.00961116
0.0130245
0.00454695
-0.00202727
0.0106667
-0.00590571
0.0126611
-0.00606165
0.0123692
-0.00469602
0.010636
-0.00323866
0.00792746
-0.00183927
0.00475599
-0.000778775
0.00174779
-0.000184483
1.4487e-05
0.0134203
0.953097
0.0152453
1.03031
0.0165822
0.984804
0.015521
0.946351
0.0140916
0.903534
0.0117184
0.866737
0.00888208
0.829728
0.00542684
0.795592
0.00159756
0.762527
-0.00331654
0.731412
-0.00945862
0.701672
-0.0161039
0.672681
-0.0230586
0.644658
-0.0306574
0.617679
-0.0389202
0.591228
-0.0477316
0.565174
-0.0570226
0.539332
-0.0666376
0.513643
-0.0764539
0.488028
-0.0863063
0.46248
-0.0959843
0.436931
-0.105302
0.411391
-0.114119
0.385928
-0.122148
0.360556
-0.129096
0.335561
-0.134395
0.310947
-0.138267
0.286831
-0.141428
0.263928
-0.14389
0.242072
-0.145436
0.221248
-0.144892
0.200855
-0.142453
0.181683
-0.139738
0.165179
-0.135394
0.14918
-0.128246
0.133143
-0.116972
0.116534
-0.0988758
0.0967573
-0.0694481
0.0681253
-0.0351323
0.0372987
-0.00601241
0.0107748
0.0112245
-0.00421242
0.0181746
-0.00897737
0.0197682
-0.00749932
0.0188103
-0.00510373
0.016565
-0.00245073
0.013502
-0.000175647
0.00986076
0.00180195
0.00600209
0.00307989
0.00229986
0.00351775
0.00231434
0.0101479
0.942949
0.0128282
1.02763
0.014567
0.983065
0.0157008
0.945218
0.0158403
0.903394
0.0151228
0.867455
0.0135721
0.831279
0.0109733
0.79819
0.00752529
0.765975
0.00360383
0.735333
-0.000635763
0.705912
-0.00595685
0.678002
-0.0123541
0.651055
-0.0195247
0.62485
-0.027552
0.599255
-0.0363739
0.573996
-0.0458881
0.548846
-0.0559509
0.523706
-0.0663659
0.498443
-0.0769235
0.473038
-0.0874584
0.447466
-0.0977805
0.421713
-0.107683
0.395831
-0.116984
0.369858
-0.125575
0.344151
-0.13359
0.318963
-0.140956
0.294197
-0.14662
0.269592
-0.150411
0.245864
-0.152113
0.22295
-0.152526
0.201268
-0.152915
0.182071
-0.150008
0.162272
-0.142587
0.141759
-0.130176
0.120732
-0.109386
0.0957435
-0.0756875
0.063059
-0.0388495
0.0312873
-0.0103112
0.00876045
0.00742581
-0.00696221
0.0153328
-0.0121194
0.0180658
-0.0117104
0.0183018
-0.00773533
0.01676
-0.00356189
0.0143429
-3.36676e-05
0.0111508
0.0030165
0.00783284
0.00511989
0.00447153
0.0064412
0.00158449
0.00640478
0.00389884
0.014285
0.928664
0.0178109
1.0241
0.0194382
0.981438
0.0193888
0.945267
0.0192901
0.903493
0.0182959
0.868449
0.0168069
0.832768
0.0149314
0.800066
0.0124301
0.768476
0.00892188
0.738842
0.00405346
0.71078
-0.00148975
0.683545
-0.00771931
0.657284
-0.0147596
0.63189
-0.0226038
0.607099
-0.0314221
0.582815
-0.0411527
0.558576
-0.0516491
0.534202
-0.0627748
0.509568
-0.0743471
0.48461
-0.0861019
0.459221
-0.0977959
0.433407
-0.109282
0.407317
-0.120356
0.380932
-0.130555
0.354351
-0.139272
0.32768
-0.14617
0.301095
-0.151889
0.275312
-0.15605
0.250025
-0.159595
0.226495
-0.162744
0.204417
-0.161408
0.180735
-0.154287
0.155152
-0.141751
0.129223
-0.117471
0.0964519
-0.0842555
0.0625281
-0.053409
0.0322125
-0.0326922
0.0105704
-0.0218133
-0.00211849
-0.0169541
-0.0118213
-0.0123248
-0.0167487
-0.00711822
-0.016917
-0.00225953
-0.012594
0.00060028
-0.00642171
0.00134196
-0.000775344
0.00134103
0.00301743
0.000853592
0.00560733
0.000172109
0.00712269
-0.000249387
0.00682628
0.00364945
0.00893606
0.919728
0.0141385
1.0189
0.0157486
0.979828
0.0177874
0.943228
0.0191915
0.902089
0.0196554
0.867985
0.0194851
0.832938
0.0182976
0.801254
0.0163045
0.770469
0.0140076
0.741139
0.0113459
0.713442
0.00758019
0.687311
0.00247252
0.662392
-0.00381597
0.638179
-0.0110883
0.614371
-0.0194484
0.591175
-0.0289389
0.568067
-0.0394814
0.544745
-0.0508662
0.520953
-0.0628074
0.496551
-0.0751513
0.471565
-0.0876855
0.445941
-0.100234
0.419865
-0.112493
0.393191
-0.124102
0.36596
-0.134982
0.338559
-0.145301
0.311414
-0.154229
0.284239
-0.161854
0.25765
-0.167494
0.232135
-0.168797
0.20572
-0.164024
0.175962
-0.153006
0.144133
-0.129273
0.10549
-0.103348
0.0705262
-0.0830175
0.0421978
-0.0719847
0.0211797
-0.066781
0.00536675
-0.0600062
-0.00889326
-0.0522043
-0.0196233
-0.0428346
-0.0261184
-0.0323512
-0.0274004
-0.0216903
-0.0232549
-0.0128351
-0.0152769
-0.0069593
-0.00665115
-0.00441528
0.000473412
-0.00310741
0.00429945
-0.00196481
0.0059801
-0.00092671
0.00578817
0.00272274
0.0125363
0.907191
0.0186753
1.01276
0.0184279
0.980075
0.0195154
0.942141
0.020609
0.900995
0.0207318
0.867862
0.0206172
0.833053
0.0203159
0.801555
0.0192821
0.771503
0.0173008
0.74312
0.0140791
0.716664
0.010251
0.691139
0.00574491
0.666898
0.000231333
0.643692
-0.00653956
0.621142
-0.0144581
0.599093
-0.0236471
0.577256
-0.0341809
0.555278
-0.0458691
0.532641
-0.0584926
0.509175
-0.0717627
0.484835
-0.085533
0.459711
-0.0996273
0.43396
-0.113666
0.407229
-0.127138
0.379433
-0.139768
0.351189
-0.150246
0.321891
-0.159476
0.293469
-0.167217
0.265392
-0.170396
0.235314
-0.168944
0.204268
-0.160167
0.167184
-0.140032
0.123998
-0.120326
0.085785
-0.108457
0.0586575
-0.103676
0.0374166
-0.100898
0.0184015
-0.0943388
-0.00119234
-0.0877676
-0.0154644
-0.079951