/*--------------------------------*- C++ -*----------------------------------*\
| =========                 |                                                 |
| \\      /  F ield         | OpenFOAM: The Open Source CFD Toolbox           |
|  \\    /   O peration     | Version:  v1912                                 |
|   \\  /    A nd           | Website:  www.openfoam.com                      |
|    \\/     M anipulation  |                                                 |
\*---------------------------------------------------------------------------*/
FoamFile
{
    version     2.0;
    format      ascii;
    class       volVectorField;
    location    "0.21";
    object      U;
}
// * * * * * * * * * * * * * * * * * * * * * * * * * * * * * * * * * * * * * //

dimensions      [0 1 -1 0 0 0 0];


internalField   nonuniform List<vector> 
6600
(
(39.8455 -0.0369093 0)
(40.1056 -0.0366096 7.1799e-21)
(40.1777 0.0764938 5.05283e-19)
(40.2375 0.185374 0)
(40.2927 0.31859 6.08492e-19)
(40.348 0.489067 1.98241e-20)
(40.4259 0.656865 -2.19826e-20)
(40.504 0.842196 -2.49452e-20)
(40.5604 1.06456 5.3697e-19)
(40.5901 1.30388 -1.13337e-19)
(40.6073 1.5527 0)
(40.6363 1.79144 -7.43263e-19)
(40.6224 2.06276 0)
(40.6108 2.3334 -8.12125e-19)
(40.59 2.61805 -1.2912e-18)
(40.5482 2.9142 -7.27779e-19)
(40.4931 3.22383 0)
(40.4152 3.54999 0)
(40.3215 3.89139 1.39304e-18)
(40.2123 4.2503 -1.26486e-18)
(40.0938 4.63014 -1.99486e-19)
(39.9682 5.02807 -8.08808e-19)
(39.8239 5.44038 -1.55873e-18)
(39.6179 5.82229 3.67014e-19)
(39.4567 6.25193 1.41088e-18)
(39.3078 6.74301 0)
(39.0625 7.25018 3.64088e-18)
(38.7681 7.77508 0)
(38.5096 8.37147 -1.92623e-18)
(38.2534 9.00297 -1.28698e-18)
(37.9697 9.64087 -3.46649e-19)
(37.6806 10.3182 -1.68243e-18)
(37.4031 11.0435 -7.13599e-19)
(37.0937 11.8132 1.49042e-18)
(36.7757 12.6195 3.51021e-19)
(36.4892 13.489 1.82318e-18)
(36.2062 14.4296 3.56211e-18)
(35.9291 15.423 3.55094e-18)
(35.6872 16.4889 -2.63079e-18)
(35.4554 17.6211 2.81851e-18)
(35.2529 18.827 1.49987e-18)
(35.0881 20.1146 0)
(34.9628 21.4814 -3.75484e-19)
(34.8814 22.9457 9.28888e-19)
(34.8409 24.4716 0)
(34.8745 26.1447 -6.33982e-19)
(34.9307 27.7616 -1.74786e-18)
(35.2513 29.8367 0)
(33.6662 30.4378 0)
(23.9322 23.0538 -1.59323e-18)
(39.7441 -0.0459312 4.1883e-19)
(40.2019 -0.0552258 -3.97016e-19)
(40.2777 0.112927 0)
(40.3445 0.272028 -7.2589e-21)
(40.3996 0.446384 4.70373e-19)
(40.4707 0.635044 1.7042e-20)
(40.5202 0.844512 -1.1857e-22)
(40.5727 1.0382 -2.08942e-20)
(40.6239 1.23693 0)
(40.667 1.44278 -8.32432e-19)
(40.7118 1.66842 -3.06361e-20)
(40.7404 1.92313 5.19372e-19)
(40.7815 2.17376 5.67756e-19)
(40.7972 2.44695 5.23537e-19)
(40.8048 2.73789 -4.2957e-21)
(40.7854 3.04513 6.97365e-20)
(40.7504 3.36667 -6.27329e-19)
(40.6984 3.70543 0)
(40.6241 4.06011 0)
(40.5337 4.43191 1.31095e-18)
(40.4217 4.82327 1.89009e-19)
(40.2838 5.23419 -1.00962e-18)
(40.119 5.66795 -9.59055e-19)
(39.9971 6.20462 -1.14539e-18)
(39.8083 6.72624 -9.78618e-19)
(39.54 7.20988 -4.26193e-19)
(39.313 7.74483 -5.90035e-19)
(39.1282 8.3277 -5.92885e-19)
(38.8902 8.89163 1.9057e-18)
(38.645 9.48524 3.1086e-19)
(38.4168 10.1538 -2.53694e-18)
(38.1739 10.8565 2.37447e-18)
(37.9076 11.586 1.7111e-18)
(37.6425 12.3522 -2.20441e-18)
(37.3954 13.1728 3.66536e-19)
(37.1451 14.0462 -1.86464e-18)
(36.9255 14.9621 1.49057e-18)
(36.7442 15.9449 -1.26648e-18)
(36.5644 16.9796 -8.3803e-19)
(36.4291 18.0817 -9.43613e-19)
(36.3316 19.2429 0)
(36.2573 20.4691 0)
(36.2311 21.7458 -3.87723e-21)
(36.3005 23.1255 -6.1219e-20)
(36.4933 24.5872 -1.03586e-18)
(36.7486 26.1674 6.54619e-19)
(37.0373 27.7078 3.20713e-18)
(37.4613 29.5285 0)
(35.7342 29.6898 -4.07971e-18)
(24.6391 21.7656 1.77877e-18)
(39.6869 0.000466474 -6.09521e-20)
(40.3323 -0.0434941 4.04558e-19)
(40.3847 0.131508 3.47652e-19)
(40.4606 0.289039 -4.19104e-22)
(40.5268 0.467014 -1.18328e-19)
(40.6053 0.666539 1.42847e-20)
(40.7027 0.86889 0)
(40.7921 1.10709 0)
(40.8537 1.3637 0)
(40.8866 1.63736 4.08967e-19)
(40.9203 1.90202 -2.41017e-20)
(40.9564 2.17247 -5.22838e-19)
(40.9496 2.47728 -3.49313e-19)
(40.954 2.77716 6.04839e-19)
(40.9445 3.09341 3.35935e-19)
(40.9158 3.42298 -6.12411e-20)
(40.8755 3.76698 1.19732e-18)
(40.8132 4.12896 -6.0492e-19)
(40.7362 4.50721 -7.36923e-19)
(40.6464 4.90403 0)
(40.5493 5.32203 -5.43871e-19)
(40.4471 5.75705 8.08471e-19)
(40.3305 6.20487 9.70536e-19)
(40.1493 6.61469 1.15983e-18)
(40.0248 7.0836 1.05481e-18)
(39.9197 7.61664 -1.15186e-19)
(39.717 8.15776 -2.13626e-19)
(39.4663 8.71262 -6.55145e-19)
(39.2605 9.3418 -2.92127e-19)
(39.0632 10.0014 1.17555e-18)
(38.8439 10.6592 3.87238e-19)
(38.6286 11.3542 0)
(38.4367 12.0932 -1.96743e-18)
(38.2231 12.8704 5.33605e-19)
(38.0107 13.6736 1.16643e-18)
(37.8451 14.5271 1.62263e-18)
(37.6964 15.4405 -9.39014e-19)
(37.5658 16.3915 -6.50026e-19)
(37.4913 17.4016 3.98316e-19)
(37.4465 18.4612 0)
(37.4508 19.5725 5.4628e-20)
(37.5198 20.7419 0)
(37.6585 21.9685 0)
(37.8676 23.2592 1.16204e-18)
(38.1378 24.5782 7.51967e-19)
(38.4996 26.0051 -1.91017e-18)
(38.9461 27.4869 -2.01023e-18)
(39.3419 28.8943 0)
(37.3146 28.591 -2.51952e-18)
(24.8646 20.0983 2.7656e-18)
(39.6481 0.00432679 -3.60595e-19)
(40.4959 -0.0146837 2.19729e-21)
(40.546 0.234655 -3.56307e-19)
(40.6333 0.393167 -2.41215e-19)
(40.6962 0.618219 -3.62186e-19)
(40.7609 0.839736 -1.21462e-19)
(40.8133 1.06358 -1.10416e-20)
(40.8835 1.28854 0)
(40.9475 1.51759 1.54475e-19)
(41.0071 1.74721 1.8998e-19)
(41.0476 2.01519 -1.67321e-20)
(41.0899 2.29054 -2.09464e-20)
(41.1439 2.56662 -2.09865e-19)
(41.1642 2.87218 -1.2867e-19)
(41.1822 3.19166 -7.87619e-20)
(41.1758 3.52843 -4.60056e-20)
(41.1526 3.88111 -9.94357e-20)
(41.1145 4.25111 6.78947e-19)
(41.0562 4.63813 9.35196e-19)
(40.9848 5.04358 0)
(40.8941 5.46963 1.39892e-19)
(40.7787 5.91386 0)
(40.6379 6.37609 0)
(40.5501 6.94645 -2.20922e-19)
(40.3941 7.50157 6.81994e-19)
(40.1591 8.01772 8.32447e-19)
(39.9749 8.58206 -1.72036e-19)
(39.8444 9.19498 9.31346e-19)
(39.6637 9.78508 0)
(39.4813 10.3982 0)
(39.326 11.0831 5.02714e-19)
(39.1651 11.7984 0)
(38.9873 12.5345 5.1129e-19)
(38.8236 13.299 7.64201e-19)
(38.6944 14.111 -1.40105e-18)
(38.5713 14.9641 -1.36179e-18)
(38.4918 15.8429 8.83856e-19)
(38.4693 16.7754 -3.29784e-19)
(38.4611 17.7407 3.07227e-19)
(38.5163 18.7543 3.53416e-19)
(38.6286 19.8044 -6.95118e-19)
(38.7817 20.8924 0)
(38.9998 21.9999 0)
(39.3288 23.1713 -8.32874e-19)
(39.8058 24.3934 -1.84113e-18)
(40.3545 25.6957 -5.87363e-19)
(40.9452 27.0324 -3.47412e-18)
(41.2544 28.1449 3.83608e-18)
(38.686 27.2937 5.57809e-18)
(24.606 18.1328 0)
(39.6382 0.0519608 -8.14843e-22)
(40.6794 0.0074888 1.43021e-19)
(40.712 0.291162 1.47545e-19)
(40.7987 0.426221 2.50454e-19)
(40.8664 0.64397 0)
(40.9635 0.86697 7.93781e-20)
(41.0663 1.10416 0)
(41.1531 1.36812 -5.83243e-21)
(41.2227 1.64743 -1.90126e-19)
(41.26 1.9615 -1.83283e-19)
(41.3129 2.23907 8.25441e-21)
(41.3491 2.54486 1.10129e-20)
(41.3519 2.87865 -1.22535e-20)
(41.364 3.20815 -1.8295e-19)
(41.367 3.5531 -3.46915e-19)
(41.3493 3.91346 2.49961e-20)
(41.3203 4.28806 -5.31223e-19)
(41.2732 4.68051 4.61278e-20)
(41.2126 5.08984 -2.6538e-19)
(41.1416 5.51811 -1.36771e-19)
(41.067 5.96757 4.93396e-19)
(40.9899 6.43274 0)
(40.9029 6.90696 0)
(40.7464 7.33555 -2.38784e-19)
(40.6533 7.82538 -4.41269e-19)
(40.5936 8.38646 4.51422e-19)
(40.4432 8.95454 -1.24677e-19)
(40.2417 9.52566 0)
(40.0934 10.1722 1.67225e-19)
(39.9656 10.852 -1.86265e-19)
(39.8211 11.5198 -5.10936e-19)
(39.6868 12.2152 -5.03584e-19)
(39.5893 12.9486 2.29992e-19)
(39.4837 13.7146 -1.89902e-19)
(39.3874 14.4961 2.11311e-19)
(39.3535 15.3132 0)
(39.3514 16.1778 -2.03439e-19)
(39.3743 17.061 4.39118e-19)
(39.4706 17.9845 -1.90104e-19)
(39.61 18.935 -3.0881e-19)
(39.8074 19.912 6.55168e-19)
(40.0829 20.9162 0)
(40.445 21.9514 0)
(40.89 23.0147 -1.75535e-18)
(41.3877 24.0636 3.84007e-18)
(41.9638 25.1772 1.04543e-18)
(42.58 26.4153 2.13594e-18)
(42.6428 27.0579 -4.61777e-18)
(39.3274 25.6573 3.97458e-19)
(23.6896 15.8595 -7.47402e-18)
(39.6606 0.0723862 1.09369e-19)
(40.8861 0.0435332 -1.11647e-19)
(40.9389 0.400243 -1.50989e-19)
(41.0298 0.53777 -1.06252e-20)
(41.0982 0.813402 0)
(41.1627 1.05772 4.75237e-20)
(41.2146 1.30011 5.89032e-24)
(41.2852 1.54188 7.53456e-20)
(41.3595 1.79391 4.15506e-20)
(41.4321 2.05025 0)
(41.4704 2.35995 -1.18459e-21)
(41.5304 2.64977 -5.90561e-20)
(41.5925 2.94986 6.05101e-20)
(41.6226 3.28275 6.36991e-22)
(41.6517 3.62869 1.03052e-19)
(41.6591 3.9926 -5.39863e-21)
(41.6516 4.37283 2.03566e-19)
(41.6309 4.76976 -1.43242e-20)
(41.5919 5.18484 2.60327e-20)
(41.543 5.61817 1.32919e-20)
(41.478 6.07388 4.66438e-20)
(41.3907 6.54916 -3.73196e-21)
(41.2798 7.04225 6.91965e-20)
(41.2341 7.6445 2.9211e-19)
(41.1212 8.22899 0)
(40.9204 8.76651 -3.43594e-19)
(40.7756 9.34551 7.18202e-20)
(40.7033 9.97656 -2.92501e-22)
(40.5876 10.5792 -8.74291e-20)
(40.4715 11.1924 9.52809e-20)
(40.392 11.8735 -5.96807e-20)
(40.3191 12.5808 3.01812e-19)
(40.2329 13.2997 0)
(40.1699 14.0344 0)
(40.1607 14.8074 0)
(40.1657 15.6112 0)
(40.2203 16.4204 6.01474e-19)
(40.3488 17.2666 -1.11339e-18)
(40.4973 18.1241 0)
(40.7153 19.006 3.9539e-20)
(41 19.8995 -2.25761e-19)
(41.3296 20.8036 -2.48598e-18)
(41.7227 21.6952 1.36743e-18)
(42.2176 22.608 0)
(42.8634 23.5459 1.49549e-18)
(43.5698 24.5558 -5.3804e-18)
(44.1665 25.5273 3.93258e-18)
(43.9416 25.9044 3.01499e-18)
(39.5787 23.844 1.10278e-17)
(22.0624 13.3248 -8.2338e-18)
(39.7193 0.0956675 -1.09186e-19)
(41.1075 0.0507847 6.28698e-20)
(41.1594 0.453191 -1.02763e-21)
(41.2531 0.571267 1.00617e-20)
(41.3331 0.832609 -1.14777e-19)
(41.428 1.07639 3.02938e-21)
(41.5327 1.35118 -1.78675e-19)
(41.6289 1.6429 -7.56472e-20)
(41.7024 1.95159 -2.44765e-19)
(41.7477 2.27585 5.67054e-21)
(41.8134 2.57437 1.54563e-19)
(41.8553 2.92094 -1.118e-19)
(41.8791 3.28215 -6.14105e-20)
(41.9063 3.64165 0)
(41.9259 4.01597 0)
(41.9264 4.4072 -7.74644e-21)
(41.9155 4.81257 -1.28528e-19)
(41.89 5.23527 0)
(41.8521 5.67455 -5.68731e-21)
(41.8061 6.13147 -3.63001e-20)
(41.7578 6.60765 -7.26908e-20)
(41.7093 7.09768 -7.04164e-20)
(41.6546 7.5921 0)
(41.5244 8.03255 -9.2479e-20)
(41.4593 8.53032 -5.73468e-21)
(41.4471 9.10707 6.39721e-21)
(41.3591 9.69272 0)
(41.2109 10.2643 0)
(41.1175 10.9056 -1.81734e-19)
(41.0599 11.5858 1.32461e-19)
(40.9909 12.2448 1.54584e-20)
(40.9327 12.9158 5.02715e-20)
(40.9236 13.6139 1.3723e-19)
(40.9221 14.3377 -3.69281e-19)
(40.9322 15.0648 8.05153e-19)
(41.0142 15.8077 3.73398e-19)
(41.1418 16.5854 -4.37629e-19)
(41.2895 17.3611 6.61131e-19)
(41.5179 18.1563 -1.35495e-18)
(41.7944 18.9556 5.30421e-20)
(42.1222 19.7562 -2.71752e-19)
(42.5259 20.5537 1.28393e-18)
(43.0203 21.3595 2.06308e-18)
(43.6025 22.1672 -2.29178e-18)
(44.2072 22.9338 1.48317e-18)
(44.8819 23.8134 0)
(45.2454 24.4447 2.38055e-18)
(44.5069 24.4719 3.67327e-18)
(38.8012 21.6806 -7.50614e-18)
(19.5307 10.5634 -2.28044e-18)
(39.8066 0.121731 -1.29937e-19)
(41.3673 0.07902 -9.32949e-20)
(41.4335 0.552784 -1.45578e-21)
(41.5321 0.685344 1.82695e-19)
(41.5855 1.01337 3.35079e-19)
(41.6649 1.26134 -2.65826e-19)
(41.7368 1.52019 4.87662e-19)
(41.808 1.80235 -1.77238e-19)
(41.8936 2.05723 2.40613e-19)
(41.9724 2.35653 2.44986e-19)
(42.018 2.68368 -4.46546e-19)
(42.0963 2.99014 2.02322e-19)
(42.1692 3.31841 3.37931e-19)
(42.2196 3.67708 -1.3037e-22)
(42.2691 4.04824 1.91451e-19)
(42.2975 4.43874 -2.35131e-19)
(42.3125 4.84541 1.27545e-19)
(42.3166 5.26865 0)
(42.3043 5.71018 0)
(42.2842 6.1685 0)
(42.2505 6.64878 3.19511e-20)
(42.1962 7.14943 3.8268e-20)
(42.1184 7.66759 2.02242e-19)
(42.1205 8.2965 4.25709e-20)
(42.0595 8.9054 0)
(41.8942 9.45483 0)
(41.7812 10.032 -2.08809e-19)
(41.7656 10.6674 8.46936e-20)
(41.7185 11.2701 -1.01166e-19)
(41.6648 11.8611 1.18656e-19)
(41.6523 12.5108 2.80343e-20)
(41.6605 13.1838 4.01751e-19)
(41.6561 13.8583 -1.63423e-19)
(41.675 14.5313 6.86201e-19)
(41.7652 15.229 -4.06906e-19)
(41.8736 15.9491 -1.76263e-19)
(42.0236 16.6523 1.4886e-19)
(42.2585 17.3745 6.04716e-19)
(42.5111 18.0884 5.77028e-19)
(42.825 18.8037 9.86403e-19)
(43.2055 19.5086 -2.49008e-19)
(43.6278 20.2052 1.89992e-18)
(44.1018 20.865 -2.11325e-18)
(44.6464 21.5062 0)
(45.3389 22.1751 0)
(46.053 22.9433 0)
(46.2257 23.2407 0)
(44.8165 22.9247 0)
(37.4233 19.3636 -4.24723e-18)
(16.0744 7.64913 6.97796e-18)
(39.915 0.149685 1.3127e-19)
(41.6422 0.0745157 0)
(41.7142 0.590412 0)
(41.828 0.681821 -1.86858e-19)
(41.8977 1.01555 -2.1447e-19)
(41.9898 1.28103 2.70351e-19)
(42.1026 1.57517 -3.16897e-19)
(42.2135 1.87479 1.77803e-19)
(42.2987 2.22719 -2.9803e-19)
(42.3608 2.54311 -2.52332e-19)
(42.4475 2.87756 2.66027e-19)
(42.512 3.25945 -4.21419e-19)
(42.5637 3.64711 -5.91754e-19)
(42.6129 4.03714 0)
(42.6559 4.44273 -2.1247e-19)
(42.6842 4.86332 2.73586e-19)
(42.7004 5.29831 1.37227e-22)
(42.7034 5.75091 4.64143e-19)
(42.695 6.21885 -5.74251e-19)
(42.6793 6.70209 0)
(42.6604 7.20164 0)
(42.6407 7.71197 -3.74231e-19)
(42.6183 8.2208 1.82472e-19)
(42.5202 8.67404 4.83762e-19)
(42.4735 9.16614 1.08913e-19)
(42.5025 9.74176 -4.42135e-19)
(42.4825 10.3328 5.84794e-19)
(42.3879 10.8889 -6.19984e-19)
(42.339 11.502 3.08451e-19)
(42.3422 12.1629 -2.54501e-19)
(42.3395 12.7941 1.4885e-19)
(42.3396 13.4164 -4.07058e-19)
(42.395 14.0505 3.52482e-19)
(42.4758 14.7034 -5.10806e-19)
(42.562 15.3492 0)
(42.7168 15.9861 -5.36873e-19)
(42.9301 16.6465 -5.15309e-19)
(43.1478 17.2872 1.47247e-19)
(43.4408 17.928 1.24839e-18)
(43.7827 18.5545 -1.22467e-18)
(44.1598 19.164 -2.20595e-19)
(44.5997 19.7455 -2.18421e-18)
(45.1247 20.3181 5.15309e-18)
(45.7495 20.8884 3.48168e-19)
(46.4025 21.4652 4.01584e-19)
(46.8232 21.8827 -2.07414e-18)
(46.6108 21.95 0)
(44.1172 21.0802 3.77952e-18)
(34.5684 16.5867 -2.027e-18)
(11.4541 4.5745 0)
(40.0477 0.182524 -1.54497e-21)
(41.9532 0.119066 -1.74129e-22)
(42.0226 0.673637 3.26887e-19)
(42.1169 0.79255 0)
(42.1887 1.16786 6.21349e-21)
(42.2799 1.42414 2.54586e-19)
(42.3452 1.70163 0)
(42.4394 1.99894 -3.48729e-19)
(42.5439 2.28276 3.21048e-19)
(42.6471 2.61214 -2.4594e-20)
(42.708 2.95109 -5.28186e-19)
(42.8068 3.27381 1.10816e-19)
(42.9019 3.62537 2.90048e-19)
(42.9791 4.00661 0)
(43.0538 4.40226 0)
(43.1123 4.81764 0)
(43.1559 5.25065 5.18384e-19)
(43.1902 5.69923 -4.67445e-19)
(43.2109 6.16584 9.78091e-19)
(43.224 6.64745 -9.00563e-20)
(43.2244 7.14873 2.026e-19)
(43.2053 7.66818 2.62693e-19)
(43.1651 8.20682 -1.05426e-18)
(43.2073 8.84678 -8.45363e-19)
(43.2023 9.47538 0)
(43.0742 10.0311 4.24362e-19)
(42.9792 10.5899 -1.04076e-18)
(43.0044 11.212 5.84645e-19)
(43.0177 11.8037 -3.22559e-19)
(43.0138 12.3553 1.85884e-19)
(43.0452 12.9486 -2.41539e-19)
(43.1116 13.5636 9.1403e-19)
(43.1653 14.1739 -9.51485e-19)
(43.2302 14.7646 1.34962e-18)
(43.3782 15.3621 5.49016e-19)
(43.5486 15.9784 -1.29292e-18)
(43.7374 16.5575 1.62526e-18)
(44.0157 17.1391 -1.0448e-18)
(44.3082 17.6982 3.20053e-20)
(44.6423 18.2407 0)
(45.0373 18.7551 1.76739e-18)
(45.4725 19.2526 1.21296e-18)
(45.953 19.7061 1.35722e-19)
(46.4655 20.1253 -3.41867e-18)
(47.1213 20.599 -1.11407e-19)
(47.3141 20.7336 -2.40774e-18)
(46.7054 20.5246 0)
(42.848 18.9626 3.86947e-18)
(30.9745 13.5178 -6.51218e-18)
(6.44913 1.55216 0)
(40.2332 0.217476 0)
(42.2897 0.109564 0)
(42.3622 0.671698 -1.16833e-19)
(42.4769 0.749451 1.38468e-20)
(42.5502 1.14293 -2.977e-19)
(42.6473 1.40048 -2.62025e-19)
(42.796 1.71961 0)
(42.91 2.04458 3.49529e-19)
(42.9999 2.3894 -5.12901e-19)
(43.0978 2.73796 0)
(43.2214 3.10202 8.68667e-19)
(43.3189 3.51142 -8.62499e-20)
(43.4089 3.91922 4.99392e-20)
(43.4881 4.33716 -5.56697e-20)
(43.5649 4.76804 0)
(43.6269 5.21687 0)
(43.6745 5.68 -2.42659e-19)
(43.7122 6.15929 -3.89353e-19)
(43.7373 6.65501 1.21871e-19)
(43.7532 7.16368 -6.24714e-20)
(43.7636 7.68494 1.40918e-19)
(43.7695 8.21225 -7.94882e-20)
(43.7741 8.73263 6.30142e-19)
(43.7115 9.2011 2.53835e-19)
(43.668 9.6761 -4.3441e-19)
(43.7194 10.2331 -6.36608e-19)
(43.7631 10.8209 3.89966e-19)
(43.7165 11.353 6.103e-19)
(43.6905 11.9167 0)
(43.7287 12.5384 0)
(43.7694 13.1297 0)
(43.7977 13.6907 -6.50109e-19)
(43.8771 14.2433 -4.58031e-19)
(44.0044 14.8086 -4.44465e-19)
(44.1279 15.3651 6.95668e-19)
(44.3001 15.8856 8.36951e-19)
(44.5459 16.4195 -3.62737e-19)
(44.7775 16.9234 1.15548e-18)
(45.0663 17.4116 -6.72652e-19)
(45.4053 17.8726 -8.86907e-19)
(45.7637 18.3074 -1.0819e-18)
(46.168 18.6972 1.20629e-18)
(46.639 19.0662 0)
(47.306 19.5134 1.82028e-18)
(47.6317 19.6944 -1.0061e-18)
(47.5102 19.6323 1.32085e-18)
(45.9037 18.939 0)
(40.0947 16.4058 -1.83495e-18)
(25.7182 9.78151 1.05129e-18)
(3.80698 0.150382 0)
(40.3981 0.23059 -2.02237e-19)
(42.6266 0.142472 0)
(42.6946 0.741753 -4.84181e-19)
(42.7876 0.844505 3.13122e-19)
(42.8669 1.2418 2.90245e-19)
(42.9725 1.50222 -1.18927e-20)
(43.0518 1.79102 1.3232e-20)
(43.1774 2.09555 0)
(43.3206 2.41404 4.95736e-19)
(43.4381 2.74691 -3.4386e-19)
(43.5267 3.09775 -3.39771e-19)
(43.6514 3.43546 4.17638e-19)
(43.777 3.81063 -2.76778e-19)
(43.8905 4.20871 -7.17379e-20)
(43.9988 4.62772 4.05738e-20)
(44.0917 5.06746 0)
(44.171 5.52387 -4.38338e-19)
(44.24 5.99742 4.99036e-19)
(44.2948 6.48959 5.98637e-20)
(44.3418 6.99364 -1.75534e-21)
(44.3763 7.51483 9.08016e-20)
(44.3905 8.05006 0)
(44.385 8.60153 1.21181e-19)
(44.4503 9.23817 4.78338e-19)
(44.4953 9.88345 5.56183e-19)
(44.4041 10.4492 6.40022e-19)
(44.3068 10.9807 0)
(44.3404 11.5741 -4.29114e-19)
(44.3921 12.1507 -9.03311e-19)
(44.4153 12.6586 4.8708e-19)
(44.4549 13.181 -1.02377e-18)
(44.5418 13.722 -4.90063e-19)
(44.6243 14.2608 8.5197e-19)
(44.695 14.7682 -3.08094e-19)
(44.8491 15.2588 -7.01655e-19)
(45.0399 15.7704 -3.56856e-19)
(45.215 16.2323 -4.95058e-19)
(45.4746 16.6816 0)
(45.7531 17.1005 -8.0701e-19)
(46.0476 17.4925 1.79029e-18)
(46.3921 17.8419 1.09475e-18)
(46.7765 18.1731 -1.29187e-18)
(47.2531 18.5057 1.58869e-18)
(47.6407 18.725 -8.08328e-19)
(47.6868 18.7313 2.12437e-18)
(47.1089 18.4171 -1.46864e-20)
(44.2887 17.1608 0)
(36.2021 13.6348 3.70478e-18)
(19.2755 6.05659 -3.10866e-18)
(1.52426 -0.30309 -1.10251e-18)
(40.6476 0.247226 2.02405e-19)
(42.9849 0.116275 -2.87666e-19)
(43.0801 0.689427 2.67302e-19)
(43.1771 0.758484 -3.0799e-19)
(43.2569 1.16591 -2.14221e-19)
(43.3882 1.41355 -1.41698e-20)
(43.5545 1.74596 8.0196e-21)
(43.6838 2.07735 0)
(43.8088 2.43105 -3.56206e-19)
(43.9372 2.78627 5.58475e-19)
(44.1104 3.16342 0)
(44.2552 3.59891 -3.37835e-20)
(44.3901 4.02458 1.92456e-20)
(44.5129 4.46705 3.43342e-19)
(44.6292 4.92475 -4.96658e-19)
(44.733 5.39878 -1.64675e-21)
(44.8179 5.89108 6.58769e-20)
(44.8917 6.39834 0)
(44.9509 6.9213 -2.46598e-19)
(44.9983 7.4556 4.92103e-19)
(45.0341 8.00104 -5.65683e-20)
(45.0593 8.54771 0)
(45.0829 9.08496 0)
(45.05 9.57418 -2.40782e-19)
(44.9895 10.0305 9.86531e-20)
(45.029 10.556 -7.12311e-19)
(45.1171 11.1371 2.56198e-19)
(45.1081 11.6506 -1.45167e-19)
(45.0778 12.1557 4.47545e-19)
(45.1116 12.7235 1.93174e-19)
(45.1635 13.2719 5.83663e-19)
(45.1882 13.7755 -6.0931e-19)
(45.2447 14.247 3.87119e-19)
(45.3765 14.7207 -3.86617e-19)
(45.5052 15.1967 -4.42672e-19)
(45.643 15.6126 -4.67618e-19)
(45.8711 16.0306 0)
(46.0769 16.417 1.10137e-18)
(46.3086 16.7777 -4.09288e-19)
(46.5922 17.1018 -9.67913e-19)
(46.8871 17.4021 1.14435e-18)
(47.2328 17.6731 -2.60994e-20)
(47.6685 17.9426 -7.85298e-19)
(47.8083 18.0055 -1.8668e-20)
(47.6596 17.9002 -1.13724e-18)
(46.1293 17.2365 -2.68999e-18)
(41.2912 15.3154 1.50592e-18)
(29.9542 10.767 0)
(9.54491 2.45973 -1.965e-18)
(-0.366753 -0.160116 3.78277e-18)
(40.8197 0.211586 5.44615e-22)
(43.3317 0.134451 2.89294e-19)
(43.4094 0.727973 -9.26194e-20)
(43.5071 0.784033 -3.1312e-21)
(43.5953 1.20938 2.14559e-19)
(43.7009 1.44097 0)
(43.8263 1.73193 0)
(43.9886 2.04096 -1.13132e-20)
(44.1527 2.34906 6.12312e-19)
(44.3259 2.70747 -2.18629e-19)
(44.4476 3.06178 1.74546e-20)
(44.598 3.4091 -3.96033e-20)
(44.7677 3.79726 1.83879e-19)
(44.9222 4.21847 -1.84623e-19)
(45.073 4.65795 7.09583e-19)
(45.2081 5.12315 -1.51901e-19)
(45.3264 5.60665 1.74719e-19)
(45.4339 6.107 4.67148e-20)
(45.525 6.62652 -4.92312e-19)
(45.6041 7.15771 -3.21428e-19)
(45.6687 7.70299 1.50107e-21)
(45.7115 8.25785 -7.80332e-20)
(45.7334 8.82372 0)
(45.7976 9.45258 -3.24255e-19)
(45.8729 10.114 1.13437e-21)
(45.8172 10.7051 6.84519e-20)
(45.6989 11.2167 7.53221e-20)
(45.6961 11.7727 1.87012e-19)
(45.7493 12.338 0)
(45.7736 12.8158 1.16073e-19)
(45.783 13.2697 6.42075e-19)
(45.8442 13.731 5.71035e-19)
(45.9279 14.1995 -2.93911e-19)
(45.9755 14.6403 5.97322e-19)
(46.084 15.0331 -4.82536e-19)
(46.2601 15.4504 -2.88896e-19)
(46.3893 15.8191 0)
(46.5802 16.1628 -7.38493e-19)
(46.8072 16.4717 -4.58318e-19)
(47.029 16.7552 5.11923e-19)
(47.2938 16.9994 -5.96114e-19)
(47.6791 17.2853 6.62162e-19)
(47.8273 17.3849 0)
(47.7607 17.3585 4.86071e-19)
(46.844 16.9921 0)
(43.8364 15.8344 6.59222e-19)
(36.3631 12.9357 -1.48328e-18)
(21.6329 7.15711 8.29437e-19)
(4.20543 0.897587 0)
(-1.18194 -0.0420969 2.5021e-19)
(41.0435 0.224232 7.92096e-23)
(43.6796 0.0670133 9.09556e-23)
(43.7657 0.628957 9.52604e-20)
(43.8824 0.652469 4.64334e-22)
(43.9795 1.04676 3.92808e-21)
(44.1557 1.26707 6.12573e-22)
(44.3173 1.60014 -6.81856e-22)
(44.4962 1.91662 1.63369e-21)
(44.662 2.28049 -2.22992e-19)
(44.8342 2.61979 -4.58351e-21)
(45.063 3.01198 -2.53629e-21)
(45.2641 3.4567 5.76237e-21)
(45.4505 3.89974 1.94842e-19)
(45.6351 4.36224 -2.28779e-19)
(45.8085 4.84728 -2.77973e-19)
(45.9622 5.3501 1.51834e-19)
(46.0916 5.87365 -1.6902e-19)
(46.2065 6.41359 -7.31065e-21)
(46.3012 6.97028 -8.38799e-21)
(46.3783 7.53761 0)
(46.4363 8.11533 -1.09719e-20)
(46.474 8.69238 -5.85945e-21)
(46.5034 9.25989 6.55703e-21)
(46.4898 9.7875 0)
(46.3982 10.2447 0)
(46.384 10.7381 2.78362e-19)
(46.479 11.3128 0)
(46.4933 11.8294 -1.87256e-19)
(46.4351 12.2866 0)
(46.4182 12.7927 8.58675e-21)
(46.4415 13.2991 -2.98926e-19)
(46.4391 13.7617 2.09922e-20)
(46.433 14.1705 -3.96203e-19)
(46.5219 14.5561 3.49709e-20)
(46.6369 14.966 2.16091e-19)
(46.7073 15.3038 3.26326e-19)
(46.874 15.6277 -1.11403e-20)
(47.0363 15.9249 0)
(47.1871 16.1974 -7.44047e-21)
(47.3901 16.4322 8.5877e-21)
(47.6889 16.7148 0)
(47.8212 16.8462 -1.02913e-20)
(47.8174 16.8713 -5.01736e-20)
(47.3023 16.7185 -4.27457e-19)
(45.4339 16.0424 -8.68273e-21)
(40.2818 14.1357 0)
(29.2261 10.0381 0)
(10.5173 3.0513 1.14033e-19)
(0.642236 0.280739 -1.12876e-19)
(-1.67425 -0.111463 2.53725e-19)
(41.1781 0.156292 1.92682e-19)
(43.9756 0.0466381 2.14757e-19)
(44.067 0.59667 1.19379e-19)
(44.1648 0.623969 1.40731e-19)
(44.2837 1.02046 1.49149e-19)
(44.4127 1.2085 -1.77303e-19)
(44.5928 1.48522 0)
(44.7818 1.78397 0)
(45.0084 2.07466 1.41963e-19)
(45.2256 2.44244 4.58296e-21)
(45.4003 2.7838 -1.80414e-19)
(45.6012 3.14135 -1.28986e-20)
(45.8283 3.54277 -2.43944e-19)
(46.0327 3.97993 2.83923e-19)
(46.226 4.44123 3.58786e-19)
(46.41 4.93177 0)
(46.5776 5.44546 0)
(46.7311 5.97979 7.30903e-21)
(46.8625 6.53577 8.38626e-21)
(46.976 7.10483 -3.52706e-19)
(47.068 7.68745 1.09693e-20)
(47.1338 8.27676 0)
(47.1781 8.87366 0)
(47.2184 9.50495 -6.97568e-20)
(47.2937 10.1879 -3.35874e-19)
(47.2729 10.8325 9.86906e-20)
(47.1276 11.3566 0)
(47.0411 11.8796 -2.40026e-19)
(47.0438 12.4398 0)
(47.0402 12.9144 -8.58364e-21)
(46.9887 13.3227 0)
(46.9737 13.7091 0)
(47.0279 14.1047 1.07157e-19)
(47.0452 14.5001 1.22973e-19)
(47.066 14.8151 0)
(47.1955 15.1477 0)
(47.2772 15.4491 1.11339e-20)
(47.3748 15.7214 0)
(47.5351 15.9567 7.43544e-21)
(47.7405 16.2191 -2.82372e-19)
(47.889 16.4113 2.9734e-19)
(47.9112 16.4619 2.06178e-20)
(47.6171 16.4252 1.13716e-20)
(46.323 16.0189 -4.7866e-19)
(42.4939 14.6561 -2.73319e-19)
(33.9269 11.5872 1.56162e-18)
(18.5909 5.99713 -6.98276e-19)
(3.74025 1.17105 -7.99369e-19)
(-1.40467 0.206099 6.59313e-19)
(-1.75137 -0.0203195 0)
(41.3262 0.139326 -1.91783e-19)
(44.2321 -0.0319797 2.49865e-19)
(44.3655 0.42549 -1.17209e-19)
(44.4821 0.417692 1.63567e-19)
(44.6161 0.780646 -1.58305e-19)
(44.8243 0.953473 1.82538e-19)
(45.0344 1.26187 1.4151e-20)
(45.2658 1.55382 -1.57556e-20)
(45.4682 1.89185 -1.22755e-19)
(45.7063 2.20793 -2.12962e-20)
(45.9955 2.60101 1.91848e-19)
(46.2576 3.04716 4.96668e-19)
(46.512 3.49282 -3.19667e-19)
(46.7633 3.97259 -2.60308e-19)
(47.0005 4.48106 -1.17776e-18)
(47.2346 5.01293 5.45554e-20)
(47.4403 5.57461 -6.08505e-20)
(47.6115 6.15834 6.05298e-19)
(47.7506 6.76105 8.29909e-20)
(47.8634 7.37793 2.59575e-19)
(47.9464 8.00623 0)
(47.9971 8.63558 0)
(48.025 9.2591 0)
(48.0124 9.85208 0)
(47.8919 10.355 3.34377e-19)
(47.7896 10.8382 -8.48268e-19)
(47.8357 11.412 0)
(47.8503 11.9651 7.72788e-19)
(47.7519 12.4114 0)
(47.6407 12.8614 0)
(47.5836 13.3228 -7.46689e-19)
(47.537 13.758 4.0502e-19)
(47.4471 14.1354 -9.10843e-19)
(47.4362 14.4381 2.62585e-19)
(47.5216 14.7819 0)
(47.5255 15.067 0)
(47.599 15.3197 3.84453e-19)
(47.7218 15.5476 -1.31153e-18)
(47.8453 15.789 0)
(47.9921 16.022 -8.02203e-19)
(48.0274 16.0974 1.21761e-18)
(47.803 16.1048 -1.47512e-18)
(46.8636 15.8751 8.38947e-19)
(43.9319 14.8887 -9.72224e-19)
(37.2295 12.564 2.45319e-18)
(24.5561 8.07077 -2.14347e-18)
(7.54347 2.33597 1.37948e-18)
(-0.0420994 0.534168 -3.07764e-18)
(-2.30697 0.151433 3.62081e-18)
(-1.64384 0.0781387 -2.33968e-18)
(41.3457 0.0369691 -4.41612e-19)
(44.4379 -0.0758378 3.03976e-20)
(44.5734 0.35401 0)
(44.7003 0.32466 -3.01928e-19)
(44.8384 0.672903 -7.62402e-19)
(45.0204 0.79912 2.54723e-20)
(45.2256 1.04032 0)
(45.4699 1.29395 0)
(45.7697 1.56229 -4.18464e-20)
(46.0468 1.91467 4.66156e-20)
(46.2955 2.23714 -9.28809e-19)
(46.5665 2.58981 5.91267e-19)
(46.8665 2.9952 5.78138e-19)
(47.1483 3.44487 -7.42817e-19)
(47.4136 3.9276 7.82158e-19)
(47.6576 4.44548 1.22047e-19)
(47.8712 4.99478 -1.30469e-18)
(48.0796 5.57103 -1.95442e-18)
(48.2655 6.1772 0)
(48.4244 6.80207 8.92159e-19)
(48.5516 7.44383 1.02051e-18)
(48.6429 8.09475 0)
(48.7046 8.75058 -1.3199e-18)
(48.7204 9.41708 0)
(48.7649 10.136 0)
(48.7741 10.8695 8.45634e-19)
(48.6154 11.4675 5.54434e-19)
(48.4142 11.9873 1.2026e-18)
(48.3015 12.5491 0)
(48.228 13.051 0)
(48.0979 13.456 3.56993e-19)
(47.9586 13.7902 4.3234e-19)
(47.9283 14.0968 1.47923e-18)
(47.9199 14.4477 3.02756e-21)
(47.835 14.7045 5.7654e-21)
(47.8766 14.9488 -1.38168e-18)
(47.9356 15.1832 -1.28025e-20)
(47.9829 15.4173 1.73513e-18)
(48.1233 15.6696 9.52637e-19)
(48.1607 15.7659 5.35061e-19)
(47.9758 15.805 1.30954e-18)
(47.2378 15.6745 2.61873e-20)
(45.0022 14.9862 -1.68134e-18)
(39.559 13.166 -9.59173e-19)
(28.6482 9.38553 -2.70143e-18)
(11.6603 3.6912 3.0226e-18)
(1.85475 0.986625 -1.34693e-18)
(-1.80272 0.354334 0)
(-2.51967 0.205036 0)
(-1.42873 0.140592 4.59891e-19)
(41.2792 -0.00216041 1.34325e-18)
(44.5943 -0.174252 5.44864e-19)
(44.7583 0.156647 -5.88598e-19)
(44.9073 0.0703071 2.10477e-20)
(45.0728 0.365864 1.51596e-18)
(45.3201 0.46238 -2.70295e-20)
(45.5866 0.726939 0)
(45.8656 0.977531 -1.23087e-18)
(46.1413 1.25996 -4.50307e-20)
(46.4481 1.54536 -2.63281e-21)
(46.8072 1.91639 1.98299e-18)
(47.1516 2.34394 -1.01254e-18)
(47.4925 2.78493 4.05803e-21)
(47.8286 3.2684 6.46443e-19)
(48.151 3.79055 0)
(48.4687 4.34943 0)
(48.7567 4.95001 1.00933e-18)
(49.0273 5.58292 1.52004e-18)
(49.2568 6.24758 0)
(49.425 6.9342 -8.89094e-19)
(49.5499 7.63964 -1.01684e-18)
(49.6284 8.3528 -3.08181e-19)
(49.6625 9.06696 1.95246e-19)
(49.6365 9.7614 1.26252e-18)
(49.5089 10.3761 4.40157e-19)
(49.3118 10.9059 4.93586e-19)
(49.2463 11.4953 -1.60147e-18)
(49.2196 12.1205 -1.16911e-18)
(49.0791 12.6217 1.42405e-18)
(48.8491 13.0522 -1.56983e-18)
(48.6448 13.4679 0)
(48.5169 13.8685 0)
(48.3445 14.2451 2.62111e-20)
(48.1674 14.477 -1.13441e-18)
(48.1709 14.7234 1.28591e-18)
(48.139 14.9461 2.14866e-18)
(48.1288 15.1392 -7.88122e-19)
(48.269 15.3611 -1.70801e-18)
(48.3035 15.4627 -1.92515e-18)
(48.1452 15.5037 -1.15427e-18)
(47.5468 15.45 -2.07638e-20)
(45.7942 14.9807 1.4808e-18)
(41.2205 13.5156 0)
(31.4359 10.2008 9.5021e-19)
(15.4822 4.96256 1.06424e-18)
(3.72799 1.5939 1.18359e-18)
(-1.04858 0.717262 3.97045e-18)
(-2.53877 0.447966 -1.47708e-18)
(-2.46195 0.351016 0)
(-1.20829 0.184945 0)
(41.1451 -0.0192554 1.24264e-20)
(44.664 -0.2427 -1.03699e-18)
(44.8281 0.0510282 6.06471e-19)
(44.9797 -0.0575924 -1.38735e-18)
(45.1616 0.20463 -8.24872e-19)
(45.3884 0.238346 -1.34254e-21)
(45.6534 0.427371 3.28595e-20)
(45.9749 0.614406 1.14731e-18)
(46.3229 0.842088 9.0244e-20)
(46.687 1.13806 1.1227e-19)
(47.0171 1.42804 -9.87546e-19)
(47.3744 1.75225 -1.47319e-19)
(47.7696 2.13986 -1.46793e-18)
(48.1466 2.58726 -1.72904e-18)
(48.5113 3.07756 2.51235e-19)
(48.8547 3.62129 -2.80234e-19)
(49.1656 4.20875 0)
(49.4442 4.83592 -1.61939e-18)
(49.6852 5.50228 0)
(49.9152 6.19717 0)
(50.1013 6.92398 0)
(50.2352 7.67126 -6.80309e-19)
(50.325 8.42303 2.21604e-18)
(50.3482 9.17991 -1.64591e-18)
(50.3469 9.96367 0)
(50.385 10.8154 -5.4272e-19)
(50.2291 11.5699 -1.94104e-18)
(49.924 12.1605 -2.81659e-18)
(49.6368 12.7456 -2.14687e-18)
(49.4227 13.3016 1.48477e-18)
(49.1969 13.7596 -1.77851e-18)
(48.9023 14.1048 9.83743e-19)
(48.6795 14.3117 2.19533e-18)
(48.6076 14.5738 0)
(48.4321 14.769 1.35933e-18)
(48.3365 14.9068 -2.86665e-18)
(48.4224 15.0786 -1.0681e-20)
(48.4139 15.1855 1.72974e-18)
(48.2766 15.2005 1.00253e-18)
(47.7813 15.1932 0)
(46.3307 14.8606 1.31337e-18)
(42.4754 13.6889 -1.50523e-18)
(33.5041 10.7409 3.37565e-18)
(18.3962 5.92142 0)
(5.61881 2.2656 -4.19369e-18)
(-0.0182233 1.16706 1.16518e-18)
(-2.14482 0.916566 -1.2981e-18)
(-2.78194 0.840921 -1.44731e-18)
(-2.38875 0.627792 3.23585e-18)
(-1.07655 0.260566 1.40675e-21)
(40.9222 -0.088458 -9.32888e-19)
(44.6538 -0.376021 1.05906e-18)
(44.8826 -0.187378 -1.20935e-18)
(45.0569 -0.335315 2.78525e-18)
(45.2742 -0.138053 -1.67383e-18)
(45.5733 -0.130983 1.18452e-19)
(45.878 0.0725795 -1.18368e-18)
(46.2085 0.224796 0)
(46.5645 0.439774 -1.55926e-18)
(46.9464 0.663936 1.96599e-18)
(47.3876 0.987554 8.15925e-21)
(47.8319 1.37001 -1.54837e-19)
(48.275 1.78281 1.46301e-18)
(48.72 2.24636 -1.04295e-19)
(49.1519 2.76436 1.88913e-18)
(49.5825 3.33667 3.00194e-19)
(49.9829 3.96553 0)
(50.3637 4.64573 1.61211e-18)
(50.7025 5.37643 4.05888e-18)
(50.9757 6.14904 0)
(51.2001 6.95323 0)
(51.3701 7.77778 0)
(51.4384 8.62098 -2.67899e-18)