/*--------------------------------*- C++ -*----------------------------------*\
| =========                 |                                                 |
| \\      /  F ield         | OpenFOAM: The Open Source CFD Toolbox           |
|  \\    /   O peration     | Version:  v1912                                 |
|   \\  /    A nd           | Website:  www.openfoam.com                      |
|    \\/     M anipulation  |                                                 |
\*---------------------------------------------------------------------------*/
FoamFile
{
    version     2.0;
    format      ascii;
    class       volScalarField;
    location    "0.26";
    object      p;
}
// * * * * * * * * * * * * * * * * * * * * * * * * * * * * * * * * * * * * * //

dimensions      [0 2 -2 0 0 0 0];


internalField   nonuniform List<scalar> 
6600
(
98.7176
93.9715
91.7374
90.4571
89.9991
90.111
90.6502
91.6229
93.1379
95.2848
98.0184
101.302
105.203
109.733
114.864
120.599
126.945
133.893
141.452
149.586
158.233
167.311
176.763
186.889
197.317
207.796
218.438
229.202
239.854
250.255
260.362
270.026
278.983
287.037
293.961
299.435
303.207
304.96
304.314
300.882
294.277
284.032
269.598
250.582
226.155
195.71
159.071
115.416
63.6626
12.507
95.4759
90.5275
88.8437
87.3684
86.5956
86.3824
86.6282
87.4224
88.8021
90.7754
93.3368
96.4624
100.197
104.536
109.459
114.968
121.058
127.708
134.923
142.691
150.97
159.811
168.67
177.718
187.385
197.275
207.047
216.8
226.441
235.712
244.499
252.709
260.088
266.364
271.353
274.782
276.35
275.747
272.601
266.512
257.066
243.806
226.233
203.78
175.889
141.927
101.717
54.9788
1.45329
-49.5371
90.9585
85.7123
84.7704
83.1589
82.2875
81.9403
82.0956
82.7722
84.1239
86.095
88.6015
91.7085
95.4236
99.7141
104.572
109.994
115.963
122.457
129.462
136.951
144.824
153.088
161.744
170.486
179.309
188.175
197.054
205.817
214.268
222.248
229.632
236.249
241.848
246.208
249.104
250.263
249.424
246.277
240.454
231.561
219.18
202.878
182.198
156.633
125.759
89.0067
46.1564
-2.14516
-54.9125
-102.689
85.577
80.0428
79.6655
77.7198
76.8821
76.5062
76.6619
77.4592
78.8637
80.849
83.4154
86.5934
90.3492
94.6649
99.5336
104.933
110.84
117.217
124.026
131.253
138.903
146.815
154.756
162.875
171.102
179.28
187.182
194.79
202.032
208.687
214.562
219.496
223.273
225.642
226.387
225.263
221.989
216.271
207.765
196.116
180.941
161.85
138.474
110.433
77.3999
38.9191
-5.08489
-53.4211
-103.972
-146.493
79.4307
73.501
73.483
71.1958
70.4313
70.1096
70.3303
71.1528
72.6655
74.744
77.3916
80.6132
84.3896
88.7164
93.5673
98.9127
104.725
110.965
117.571
124.468
131.575
139.029
146.695
154.285
161.708
168.944
175.967
182.567
188.552
193.816
198.199
201.493
203.468
203.925
202.622
199.299
193.725
185.614
174.659
160.56
143.017
121.72
96.404
66.8147
32.7021
-6.2183
-49.9502
-97.0688
-144.114
-179.942
72.5947
66.0842
65.998
63.6045
62.8428
62.5831
62.9231
63.7994
65.3066
67.4164
70.0948
73.3192
77.0734
81.3488
86.1099
91.3262
96.9665
102.982
109.32
115.93
122.762
129.621
136.51
143.396
150.24
156.764
162.778
168.279
173.128
177.096
180.018
181.73
182.032
180.697
177.511
172.247
164.661
154.517
141.569
125.594
106.374
83.7044
57.4219
27.3476
-6.72134
-45.0057
-87.1537
-131.85
-174.691
-202.795
64.3149
57.6582
57.3129
54.8541
54.1887
53.9688
54.2614
55.1672
56.6847
58.7812
61.3968
64.5343
68.1861
72.3154
76.8892
81.8869
87.2652
92.9802
98.9672
105.155
111.463
117.907
124.351
130.589
136.499
142.127
147.348
151.879
155.551
158.264
159.871
160.171
158.952
156.048
151.265
144.373
135.199
123.56
109.263
92.1403
72.0674
48.9282
22.6423
-6.87083
-39.7775
-76.3901
-116.335
-157.772
-195.641
-216.002
54.662
47.9524
47.3995
44.8162
44.2256
43.9902
44.3341
45.2091
46.5996
48.5786
51.0846
54.0748
57.5354
61.4366
65.762
70.4734
75.5265
80.8724
86.4612
92.2324
98.1529
104.027
109.714
115.284
120.659
125.529
129.724
133.243
135.94
137.583
137.997
137.046
134.582
130.413
124.378
116.337
106.122
93.5948
78.633
61.1451
41.0541
18.3171
-7.08028
-35.1903
-66.1111
-100.034
-137.118
-174.973
-208.029
-222.243
42.8458
36.6993
36.0108
33.4383
32.853
32.5562
32.8364
33.6767
35.0262
36.8366
39.1314
41.8852
45.0723
48.689
52.6915
57.047
61.7191
66.6575
71.814
77.0972
82.394
87.7564
93.1121
98.1157
102.637
106.725
110.252
112.957
114.684
115.35
114.839
112.968
109.557
104.509
97.699
88.9819
78.2743
65.4951
50.5638
33.4213
14.0512
-7.54814
-31.3396
-57.2923
-85.5441
-116.373
-149.516
-183.283
-212.494
-223.599
29.2478
23.75
23.0886
20.5603
19.9739
19.6304
19.7918
20.5035
21.6829
23.3053
25.358
27.8158
30.694
33.9707
37.6077
41.5887
45.8634
50.3843
55.1076
59.9963
64.9675
69.7881
74.3687
78.7917
82.9294
86.459
89.2166
91.2066
92.3138
92.3437
91.1374
88.6002
84.6482
79.1385
71.9816
63.1236
52.4871
40.0189
25.6932
9.5114
-8.52251
-28.3734
-49.9747
-73.2749
-98.2038
-125.267
-153.568
-181.772
-205.573
-216.228
13.9325
8.89264
8.43748
6.12923
5.60272
5.12708
5.16777
5.68576
6.63212
7.99407
9.73182
11.8459
14.3634
17.245
20.4863
24.0594
27.9245
32.041
36.346
40.7656
45.219
49.701
54.1159
58.1654
61.6814
64.7156
67.168
68.786
69.4152
69.0022
67.4771
64.71
60.5621
55.0028
47.9723
39.4026
29.2857
17.6208
4.41035
-10.3309
-26.5528
-44.1904
-63.1337
-83.2239
-104.681
-127.122
-149.435
-169.402
-183.006
-192.175
-2.81552
-7.39685
-7.7423
-9.85315
-10.3461
-10.9419
-11.0791
-10.8418
-10.2365
-9.26734
-7.90643
-6.15124
-4.0524
-1.58333
1.25802
4.42982
7.91181
11.6693
15.6426
19.7844
24.0306
28.1701
32.0775
35.8292
39.3308
42.2634
44.4235
45.8465
46.4448
46.0443
44.5132
41.7872
37.8583
32.6369
26.0845
18.2116
9.01748
-1.47979
-13.239
-26.1898
-40.2591
-55.3396
-71.2534
-87.9549
-105.238
-122.348
-138.107
-149.848
-154.174
-158.712
-21.2026
-25.1878
-25.3236
-27.1775
-27.7358
-28.4842
-28.8917
-28.9656
-28.7222
-28.1859
-27.3324
-26.0915
-24.4622
-22.4442
-20.0634
-17.3095
-14.1972
-10.7712
-7.08029
-3.2009
0.782329
4.83607
8.90687
12.703
16.0211
18.9385
21.3863
23.0738
23.8495
23.6827
22.5264
20.3004
16.8887
12.3144
6.58543
-0.308222
-8.32519
-17.4025
-27.4605
-38.4201
-50.1649
-62.5436
-75.3506
-88.5801
-101.527
-113.34
-123.052
-129.488
-133.496
-135.02
-40.8406
-44.0119
-44.0394
-45.8361
-46.4797
-47.4909
-48.2131
-48.7078
-48.9805
-48.9703
-48.6642
-47.988
-46.9255
-45.4311
-43.5071
-41.148
-38.3773
-35.224
-31.7184
-27.9119
-23.8459
-19.7278
-15.7448
-11.7969
-7.95678
-4.54312
-1.78801
0.360298
1.79368
2.33841
1.87839
0.34681
-2.20844
-5.83256
-10.5346
-16.2486
-22.9059
-30.4287
-38.7336
-47.6943
-57.1678
-66.9574
-76.8737
-86.6977
-95.9705
-103.948
-109.791
-112.863
-117.014
-117.797
-61.7013
-63.6764
-63.5949
-65.3174
-66.1182
-67.5089
-68.688
-69.7119
-70.5614
-71.162
-71.5392
-71.574
-71.1708
-70.2966
-68.9221
-67.035
-64.6357
-61.725
-58.3458
-54.5604
-50.4791
-46.121
-41.5104
-36.9218
-32.6406
-28.6182
-24.9229
-21.8357
-19.5199
-18.053
-17.5014
-17.9066
-19.3909
-21.9173
-25.4112
-29.8301
-35.0982
-41.1122
-47.7281
-54.8255
-62.2763
-69.7844
-77.2701
-84.5443
-91.0768
-96.1755
-99.336
-102.38
-104.015
-105.052
-82.5784
-83.6254
-83.4854
-85.2725
-86.3764
-88.2356
-89.9928
-91.7398
-93.3989
-94.8668
-96.0154
-96.8672
-97.2463
-97.0848
-96.3276
-94.9404
-92.9061
-90.2232
-86.904
-82.9848
-78.5006
-73.6416
-68.6451
-63.4843
-58.1468
-52.9473
-48.1492
-43.8516
-40.2105
-37.3653
-35.4546
-34.6311
-34.8243
-36.0357
-38.2661
-41.4176
-45.3627
-49.9652
-55.1303
-60.7708
-66.4321
-72.0107
-77.6436
-82.9451
-87.5178
-90.8475
-92.8979
-94.8845
-96.0149
-96.6753
-103.107
-102.945
-103.088
-104.983
-106.543
-109.04
-111.581
-114.204
-116.838
-119.293
-121.42
-123.303
-124.667
-125.424
-125.484
-124.768
-123.225
-120.835
-117.602
-113.547
-108.786
-103.383
-97.3267
-90.8276
-84.3199
-77.9083
-71.6396
-65.7208
-60.3646
-55.8593
-52.355
-49.8667
-48.5568
-48.4317
-49.3748
-51.2781
-54.0249
-57.5305
-61.7098
-66.0094
-70.1171
-74.3714
-78.5458
-82.2011
-85.0474
-87.0824
-89.2514
-90.1766
-91.0296
-91.3288
-122.351
-121.337
-121.658
-123.934
-126.116
-129.487
-133.006
-136.723
-140.589
-144.433
-147.891
-150.87
-153.456
-155.354
-156.385
-156.469
-155.536
-153.541
-150.435
-146.184
-140.83
-134.568
-127.706
-120.319
-112.329
-103.956
-95.6342
-87.6973
-80.3993
-73.8205
-68.193
-63.8754
-60.8832
-59.1979
-58.8002
-59.5865
-61.4276
-64.1435
-67.3813
-70.6562
-74.0684
-77.4909
-80.2696
-82.1514
-83.4204
-84.8987
-86.1057
-87.0727
-87.7982
-87.9452
-139.139
-137.475
-138.595
-141.394
-144.376
-148.746
-153.435
-158.555
-163.844
-169.153
-174.315
-178.882
-182.851
-186.182
-188.6
-189.844
-189.808
-188.434
-185.657
-181.45
-175.836
-168.915
-160.696
-151.345
-141.417
-131.277
-120.977
-110.656
-100.649
-91.4877
-83.5427
-76.8804
-71.7739
-68.3847
-66.6364
-66.3843
-67.4356
-69.5443
-72.3289
-75.5509
-78.76
-81.2538
-82.4547
-82.9816
-83.1256
-83.6219
-84.4842
-85.4202
-86.092
-86.2673
-152.435
-150.876
-153.06
-156.583
-160.644
-166.375
-172.46
-179.134
-186.221
-193.418
-200.459
-207.111
-213.029
-218.074
-222.115
-224.837
-226.023
-225.554
-223.341
-219.27
-213.205
-205.295
-196.104
-185.717
-173.962
-161.198
-147.899
-134.659
-121.884
-109.759
-98.6095
-89.0793
-81.4981
-76.0115
-72.6223
-71.232
-71.6557
-73.656
-77.012
-80.727
-83.7863
-85.208
-85.4179
-84.8867
-84.5316
-84.3189
-84.6011
-85.1346
-85.5508
-85.777
-162.453
-161.838
-164.765
-169.044
-174.349
-181.455
-189.112
-197.674
-206.667
-215.96
-225.35
-234.411
-242.746
-250.046
-256.165
-260.924
-263.892
-264.817
-263.601
-260.172
-254.395
-246.171
-235.649
-223.087
-208.865
-193.671
-177.726
-161.282
-144.739
-128.761
-114.083
-101.046
-90.1573
-81.8407
-76.4038
-73.7425
-73.7776
-76.1683
-80.317
-84.7897
-88.0646
-89.4178
-89.2157
-88.4049
-87.4208
-86.4375
-85.626
-85.0932
-84.8765
-84.9703
-167.534
-169.066
-172.895
-178.373
-184.98
-193.667
-203.034
-213.573
-224.88
-236.552
-248.401
-260.227
-271.552
-281.865
-290.743
-297.955
-303.24
-306.141
-306.441
-303.998
-298.594
-289.972
-278.519
-264.788
-248.821
-230.765
-211.169
-190.714
-170.138
-150.006
-130.73
-113.12
-97.9735
-86.0683
-77.7212
-73.035
-72.0946
-74.8304
-80.4035
-86.5969
-91.0221
-92.9564
-92.8843
-91.7509
-89.8529
-87.7407
-85.7313
-84.2036
-83.3995
-83.1337
-167.861
-171.864
-176.989
-184.062
-192.011
-202.445
-213.461
-226.127
-239.704
-254.04
-268.818
-283.675
-298.282
-312.097
-324.505
-334.966
-343.241
-348.947
-351.613
-350.92
-346.743
-338.98
-327.356
-311.89
-293.234
-272.106
-249.11
-224.73
-199.458
-173.946
-149.242
-126.228
-105.872
-88.9053
-76.0615
-68.0326
-65.5211
-69.0791
-76.7864
-84.8981
-90.8584
-93.7326
-94.0662
-92.6862
-90.1806
-87.3222
-84.6012
-82.3285
-80.9139
-80.0921
-163.44
-170.717
-176.824
-185.624
-195.276
-207.372
-220.106
-234.969
-251.058
-268.04
-285.837
-304.125
-322.436
-340.22
-356.821
-371.521
-383.686
-393.016
-398.872
-400.802
-398.394
-391.489
-379.852
-363.827
-344.003
-320.274
-293.429
-264.243
-233.469
-202.258
-171.382
-141.778
-114.493
-90.8795
-72.1899
-59.5578
-55.1911
-59.0973
-68.2909
-78.2192
-86.3375
-90.9146
-92.484
-92.04
-90.306
-87.5761
-84.4097
-81.6243
-79.7008
-78.3112
-156.184
-165.826
-172.882
-183.213
-194.464
-207.876
-222.554
-239.547
-257.9
-277.772
-298.813
-320.631
-342.894
-365.067
-386.415
-406.106
-423.207
-436.953
-447.029
-452.744
-453.489
-448.916
-438.75
-422.903
-401.291
-374.747
-344.158
-310.343
-274.261
-236.601
-198.329
-160.635
-125.499
-94.4053
-68.1499
-49.6833
-42.2356
-45.6346
-55.5137
-67.9465
-78.8055
-87.7253
-93.0662
-95.0927
-94.5366
-92.0756
-88.5564
-84.9927
-82.4598
-80.7379
-146.174
-158.049
-165.772
-177.406
-189.77
-204.405
-220.892
-239.637
-260.234
-282.802
-307.047
-332.605
-359.086
-385.954
-412.496
-437.798
-460.764
-480.397
-495.831
-506.439
-511.677
-510.271
-501.976
-486.925
-465.179
-437.156
-403.561
-365.177
-322.929
-277.79
-231.692
-185.923
-142.221
-101.469
-66.1541
-42.821
-32.0641
-33.5802
-43.6923
-59.0646
-74.5465
-87.3517
-96.1692
-100.711
-101.532
-99.5563
-95.819
-91.7888
-88.8894
-87.2343
-135.746
-147.897
-156.278
-168.579
-181.611
-197.201
-214.919
-235.182
-257.79
-282.911
-310.201
-339.372
-370.123
-401.921
-434.03
-465.472
-495.041
-521.443
-543.657
-560.544
-571.322
-575.149
-571.087
-558.388
-537.228
-507.979
-471.579
-428.678
-380.697
-329.357
-275.485
-220.249
-165.188
-114.317
-74.2836
-46.4422
-32.9019
-29.8655
-37.9223
-53.4386
-71.35
-87.2207
-98.3522
-104.158
-105.783
-104.418
-101.391
-97.5955
-95.306
-94.4641
-125.377
-136.359
-145.324
-157.901
-171.219
-187.257
-205.574
-226.884
-251.01
-278.159
-308.08
-340.62
-375.54
-412.375
-450.369
-488.455
-525.231
-559.234
-589.259
-614.046
-632.204
-642.842
-643.898
-634.571
-615.529
-586.754
-549.023
-503.713
-451.282
-392.844
-330.368
-263.647
-199.034
-140.189
-94.4066
-63.6478
-46.7134
-41.8256
-46.6302
-57.6279
-72.1334
-86.1894
-96.7134
-102.65
-104.531
-104.042
-102.141
-99.9382
-98.7113
-98.5834
-120.374
-124.027
-133.773
-145.835
-159.164
-175.346
-193.75
-215.587
-240.713
-269.111
-300.975
-336.251
-374.886
-416.711
-460.824
-505.678
-550.266
-592.396
-631.297
-665.375
-692.426
-711.289
-720.177
-717.162
-702.222
-675.104
-636.426
-588.012
-532.776
-464.672
-391.541
-315.079
-242.161
-179.813
-129.85
-94.1338
-72.6576
-63.4901
-62.9774
-68.6444
-78.0587
-88.2408
-96.5061
-101.078
-102.336
-101.691
-100.469
-99.7155
-99.6197
-100.235
-133.823
-114.478
-122.874
-134.195
-147.407
-163.288
-181.499
-203.077
-228.553
-257.686
-290.797
-328.225
-369.738
-415.843
-465.603
-516.533
-568.763
-619.767
-668.311
-712.471
-749.482
-778.577
-796.909
-800.54
-791.591
-769.826
-732.876
-682.085
-623.53
-550.925
-463.366
-381.254
-304.247
-236.434
-180.209
-139.141
-110.249
-93.3158
-85.9439
-85.0193
-88.6211
-93.607
-98.2033
-100.737
-101.084
-100.226
-99.4676
-99.5688
-100.227
-101.128
24.6448
19.6121
17.2306
15.7488
15.0136
14.6914
14.5287
14.5945
14.9676
15.7211
16.8359
18.2572
20.0167
22.1175
24.5306
27.2521
30.2959
33.6729
37.4207
41.5002
45.872
50.4991
55.371
60.4828
65.7156
71.0417
76.3846
81.6117
86.5818
91.2058
95.3281
98.7923
101.46
103.035
103.179
101.62
98.0122
91.9668
83.0777
70.8879
54.9317
34.6045
9.41049
-21.5042
-58.7946
-103.272
-155.057
-214.934
-285.602
-356.818
20.9482
15.1845
13.2373
11.2024
9.91526
9.00718
8.39603
8.08369
8.12576
8.49416
9.2122
10.2227
11.5401
13.1748
15.0971
17.3188
19.8304
22.6358
25.7684
29.1935
32.8528
36.7406
40.6913
44.763
48.9674
53.2137
57.3309
61.2228
64.8112
67.9525
70.4097
72.0168
72.6633
72.068
69.8904
65.8085
59.4795
50.509
38.4691
22.9072
3.31016
-20.9419
-50.4055
-85.7202
-127.694
-177.091
-233.981
-298.634
-372.587
-445.326
15.3119
8.97196
7.69942
5.21102
3.58723
2.26835
1.30323
0.635592
0.35887
0.435551
0.769779
1.39947
2.35108
3.56528
5.04941
6.81294
8.83755
11.1167
13.6566
16.4424
19.4117
22.5173
25.6666
28.8294
32.0329
35.1501
38.0293
40.5645
42.6466
44.1541
44.8464
44.5024
42.9821
40.0271
35.3088
28.5099
19.2667
7.19081
-8.1429
-27.2129
-50.5215
-78.6622
-112.2
-151.695
-197.795
-251.24
-312.136
-379.909
-454.118
-524.196
8.47523
1.46089
0.65789
-2.2896
-4.20567
-5.7782
-7.03516
-7.91681
-8.44987
-8.70102
-8.6776
-8.35287
-7.7675
-6.92957
-5.84084
-4.51917
-2.96845
-1.20706
0.741649
2.86782
5.13334
7.48765
9.82995
12.0819
14.2008
16.137
17.7431
18.8697
19.3855
19.1562
17.9867
15.6343
11.8764
6.46711
-0.867144
-10.4559
-22.6569
-37.8716
-56.5145
-79.0224
-105.883
-137.599
-174.677
-217.62
-266.908
-323.214
-386.593
-455.569
-528.265
-593.422
0.618198
-7.04348
-7.77652
-11.1588
-13.2158
-15.0009
-16.4699
-17.6158
-18.406
-18.9225
-19.1887
-19.2047
-18.9856
-18.5316
-17.8699
-17.0086
-15.9658
-14.7671
-13.4531
-12.046
-10.5678
-9.06363
-7.64923
-6.40419
-5.36376
-4.62883
-4.33035
-4.62872
-5.68554
-7.64936
-10.706
-15.0957
-21.0499
-28.8315
-38.7292
-51.0345
-66.0991
-84.2871
-105.979
-131.586
-161.507
-196.162
-235.964
-281.31
-332.561
-390.227
-454.257
-522.909
-592.893
-651.47
-8.30703
-16.6554
-17.6397
-21.3943
-23.5229
-25.4671
-27.1244
-28.4991
-29.6119
-30.4375
-31.0172
-31.3965
-31.5811
-31.5759
-31.4017
-31.075
-30.6189
-30.0604
-29.4453
-28.8137
-28.1887
-27.5988
-27.094
-26.8486
-26.9783
-27.5308
-28.589
-30.3288
-32.9545
-36.625
-41.518
-47.8624
-55.915
-65.9398
-78.197
-92.9797
-110.586
-131.352
-155.611
-183.688
-215.921
-252.616
-294.071
-340.601
-392.481
-450.061
-513.314
-580.4
-646.354
-696.804
-19.0714
-27.6298
-28.7735
-32.8273
-35.0263
-37.1028
-39.0183
-40.6693
-42.0503
-43.2293
-44.2322
-45.0491
-45.7158
-46.2467
-46.662
-46.9711
-47.1975
-47.3672
-47.525
-47.7283
-47.9921
-48.3704
-48.9467
-49.8313
-51.078
-52.8182
-55.2147
-58.4126
-62.5641
-67.8481
-74.4524
-82.6224
-92.5852
-104.587
-118.894
-135.749
-155.427
-178.193
-204.313
-234.065
-267.681
-305.385
-347.389
-393.91
-445.202
-501.571
-562.642
-626.601
-687.464
-728.396
-31.4416
-39.8822
-41.1741
-45.4711
-47.72
-50.0771
-52.2031
-54.1082
-55.8992
-57.519
-58.9709
-60.3398
-61.5973
-62.7689
-63.8686
-64.9068
-65.9087
-66.901
-67.9124
-69.0062
-70.2126
-71.5745
-73.1602
-75.0939
-77.5108
-80.5093
-84.1978
-88.7448
-94.3226
-101.109
-109.291
-119.058
-130.65
-144.295
-160.208
-178.617
-199.736
-223.791
-250.999
-281.538
-315.589
-353.286
-394.752
-440.146
-489.695
-543.791
-602.034
-661.861
-716.363
-747.214
-45.7913
-53.4662
-54.8833
-59.2315
-61.6161
-64.2467
-66.6545
-68.9403
-71.1177
-73.2212
-75.2951
-77.2942
-79.2466
-81.158
-83.0383
-84.9055
-86.7703
-88.651
-90.5776
-92.6029
-94.7724
-97.1316
-99.8024
-102.863
-106.368
-110.467
-115.348
-121.151
-128.005
-136.061
-145.519
-156.593
-169.452
-184.285
-201.297
-220.671
-242.588
-267.21
-294.683
-325.157
-358.733
-395.49
-435.503
-478.873
-525.785
-576.612
-631.224
-686.217
-733.749
-755.182
-61.3772
-68.263
-69.7338
-74.1386
-76.6443
-79.5498
-82.3662
-85.0516
-87.7656
-90.4696
-93.1826
-95.9323
-98.6784
-101.424
-104.187
-106.956
-109.743
-112.571
-115.463
-118.458
-121.6
-124.949
-128.585
-132.614
-137.182
-142.382
-148.304
-155.101
-162.961
-172.062
-182.535
-194.519
-208.2
-223.75
-241.321
-261.062
-283.103
-307.568
-334.575
-364.199
-396.507
-431.533
-469.282
-509.803
-553.267
-600.048
-649.971
-699.946
-741.882
-757.023
-78.2257
-84.2398
-85.6589
-89.9831
-92.6061
-95.8736
-99.1234
-102.374
-105.646
-109.046
-112.544
-116.09
-119.706
-123.379
-127.084
-130.821
-134.604
-138.434
-142.323
-146.306
-150.415
-154.718
-159.325
-164.325
-169.777
-175.792
-182.547
-190.193
-198.807
-208.52
-219.542
-232.028
-246.093
-261.851
-279.436
-298.969
-320.545
-344.245
-370.118
-398.223
-428.58
-461.189
-496.049
-533.116
-572.381
-614.473
-658.474
-702.201
-738.759
-752.763
-95.546
-101.057
-102.342
-106.565
-109.371
-113.068
-116.774
-120.649
-124.719
-128.896
-133.205
-137.669
-142.245
-146.895
-151.604
-156.375
-161.183
-166.024
-170.915
-175.888
-180.961
-186.186
-191.639
-197.392
-203.565
-210.285
-217.627
-225.69
-234.697
-244.781
-256.018
-268.545
-282.488
-297.969
-315.075
-333.882
-354.452
-376.822
-401.032
-427.077
-454.94
-484.586
-515.942
-548.928
-583.675
-620.094
-656.68
-691.024
-716.902
-730.49
-113.368
-118.082
-119.397
-123.535
-126.63
-130.726
-135.018
-139.591
-144.406
-149.486
-154.805
-160.28
-165.896
-171.607
-177.4
-183.257
-189.135
-195.038
-200.961
-206.904
-212.877
-218.905
-225.099
-231.533
-238.28
-245.397
-253.037
-261.366
-270.413
-280.336
-291.319
-303.461
-316.868
-331.622
-347.791
-365.429
-384.565
-405.215
-427.346
-450.928
-475.899
-502.159
-529.573
-557.91
-587.804
-617.718
-645.583
-667.519
-678.455
-688.281
-131.273
-135.056
-136.38
-140.572
-143.954
-148.629
-153.518
-158.831
-164.575
-170.668
-177.049
-183.66
-190.432
-197.332
-204.314
-211.314
-218.323
-225.3
-232.218
-239.093
-245.935
-252.775
-259.614
-266.499
-273.517
-280.822
-288.499
-296.611
-305.374
-314.886
-325.242
-336.595
-349.034
-362.644
-377.492
-393.601
-410.97
-429.561
-449.343
-470.232
-492.1
-514.777
-537.964
-561.853
-585.845
-608.634
-628.398
-642.119
-647.024
-650.584
-148.414
-151.367
-152.779
-157.142
-160.838
-166.099
-171.754
-177.936
-184.654
-191.901
-199.465
-207.318
-215.4
-223.623
-231.904
-240.165
-248.348
-256.423
-264.366
-272.168
-279.849
-287.336
-294.697
-301.975
-309.225
-316.497
-323.89
-331.583
-339.654
-348.273
-357.609
-367.756
-378.85
-390.992
-404.21
-418.517
-433.895
-450.298
-467.627
-485.764
-504.551
-523.714
-543.183
-562.727
-581.476
-598.27
-611.193
-618.786
-626.057
-627.275
-164.18
-166.159
-167.977
-172.537
-176.797
-182.776
-189.207
-196.398
-204.214
-212.557
-221.37
-230.565
-240.02
-249.638
-259.328
-269.011
-278.579
-287.972
-297.142
-306.001
-314.517
-322.69
-330.531
-338.015
-345.183
-352.166
-359.096
-366.028
-373.136
-380.586
-388.518
-397.137
-406.568
-416.899
-428.234
-440.574
-453.869
-468.024
-482.943
-498.497
-514.522
-530.776
-546.997
-562.669
-577.179
-589.548
-598.277
-602.345
-605.828
-607.803
-177.601
-179.256
-181.329
-186.206
-191.033
-197.813
-205.23
-213.489
-222.518
-232.197
-242.459
-253.127
-264.125
-275.336
-286.616
-297.89
-309.027
-319.873
-330.321
-340.304
-349.71
-358.569
-366.858
-374.561
-381.725
-388.375
-394.553
-400.461
-406.274
-412.156
-418.354
-425.032
-432.406
-440.684
-449.923
-460.153
-471.332
-483.37
-496.137
-509.508
-523.274
-537.021
-550.447
-563.087
-574.23
-582.741
-587.701
-592.4
-593.188
-594.987
-188.768
-189.533
-192.311
-197.627
-203.171
-210.831
-219.213
-228.686
-239.081
-250.24
-262.07
-274.431
-287.198
-300.206
-313.31
-326.341
-339.156
-351.6
-363.504
-374.771
-385.316
-395.074
-403.941
-411.836
-418.784
-424.897
-430.297
-435.065
-439.362
-443.447
-447.529
-451.943
-456.979
-462.824
-469.708
-477.713
-486.81
-496.89
-507.844
-519.53
-531.355
-542.937
-554.166
-564.365
-572.494
-577.688
-581.185
-583.366
-584.61
-585.632
-196.126
-197.053
-200.354
-206.25
-212.506
-221.222
-230.694
-241.398
-253.226
-265.966
-279.473
-293.658
-308.312
-323.287
-338.417
-353.458
-368.238
-382.604
-396.346
-409.291
-421.238
-432.058
-441.648
-449.981
-457.044
-462.798
-467.302
-470.72
-473.286
-475.226
-476.899
-478.627
-480.776
-483.81
-487.992
-493.516
-500.451
-508.754
-518.413
-528.676
-538.832
-548.899
-558.292
-566.09
-571.386
-574.202
-576.328
-577.542
-578.72
-579.255
-198.971
-201.133
-204.98
-211.772
-218.78
-228.592
-239.075
-251.174
-264.464
-278.813
-294.112
-310.213
-326.929
-344.09
-361.487
-378.887
-396.03
-412.685
-428.607
-443.533
-457.238
-469.495
-480.179
-489.269
-496.522
-501.955
-505.691
-507.893
-508.676
-508.325
-507.196
-505.767
-504.638
-504.275
-505.186
-507.755
-512.252
-518.977
-527.271
-536.237
-545.666
-554.864
-562.479
-567.607
-570.248
-572.067
-572.762
-573.732
-574.692
-575.092
-197.639
-201.598
-206.121
-213.953
-221.658
-232.685
-244.138
-257.533
-272.311
-288.348
-305.496
-323.645
-342.614
-362.183
-382.101
-402.126
-421.95
-441.234
-459.689
-477.004
-492.919
-507.146
-519.493
-529.696
-537.633
-543.305
-546.664
-547.659
-546.586
-543.766
-539.577
-534.587
-529.389
-524.835
-521.701
-520.536
-521.747
-526.16
-533.005
-541.879
-551.789
-560.385
-566.175
-568.893
-570.208
-570.506
-570.835
-571.321
-571.887
-572.225
-192.061
-198.633
-203.92
-212.679
-221.326
-233.317
-245.672
-260.43
-276.611
-294.222
-313.237
-333.486
-354.799
-376.934
-399.594
-422.489
-445.296
-467.637
-489.156
-509.477
-528.202
-544.976
-559.503
-571.406
-580.593
-586.86
-590.049
-590.351
-587.765
-582.526
-575.098
-566.006
-556.137
-546.489
-538.099
-531.835
-528.556
-529.684
-535.356
-544.885
-555.556
-564.126
-568.988
-570.771
-570.684
-570.275
-569.769
-569.456
-569.351
-569.434
-183.403
-192.24
-198.185
-207.961
-217.754
-230.525
-243.78
-259.642
-277.031
-296.165
-316.953
-339.245
-362.876
-387.622
-413.188
-439.221
-465.36
-491.192
-516.277
-540.148
-562.321
-582.376
-599.832
-614.275
-625.456
-633.069
-636.982
-637.056
-633.256
-625.815
-615.065
-601.721
-586.523
-570.56
-555.373
-542.349
-532.999
-529.3
-532.803
-542.529
-554.793
-564.963
-570.239
-571.801
-571.176
-569.792
-568.307
-567.112
-566.455
-566.186
-171.568
-182.974
-189.373
-200.255
-210.895
-224.24
-238.537
-255.376
-273.696
-294.112
-316.471
-340.659
-366.538
-393.907
-422.473
-451.861
-481.644
-511.361
-540.491
-568.494
-594.796
-618.817
-640.023
-657.879
-671.929
-681.709
-686.975
-687.547
-683.384
-674.353
-660.811
-643.122
-622.13
-599.251
-575.865
-553.745
-535.33
-524.136
-523.815
-533.259
-547.717
-560.334
-567.749
-569.842
-569.421
-567.818
-565.955
-564.279
-563.249
-562.572
-158.014
-171.258
-177.891
-189.763
-201.123
-215.024
-229.991
-247.5
-266.727
-288.23
-311.899
-337.756
-365.705
-395.542
-427.037
-459.824
-493.432
-527.332
-560.919
-593.578
-624.684
-653.513
-679.333
-701.558
-719.452
-732.497
-740.369
-742.681
-738.99
-729.239
-713.298
-691.685
-665.39
-635.056
-601.88
-568.239
-537.63
-516.252
-509.636
-516.517
-532.062
-548.711
-559.376
-565.04
-567.162
-566.891
-565.155
-563.402
-562.167
-561.087
-143.069
-157.739
-164.88
-177.33
-188.895
-203.011
-218.548
-236.493
-256.39
-278.736
-303.382
-330.606
-360.34
-392.451
-426.715
-462.8
-500.262
-538.531
-576.919
-614.733
-651.23
-685.601
-717.025
-744.664
-767.587
-785.135
-796.599
-801.409
-799.503
-790.358
-773.786
-749.531
-717.708
-679.684
-636.999
-591.02
-545.961
-510.997
-494.135
-495.424
-511.172
-531.728
-550.993
-563.931
-570.2
-571.182
-569.395
-567.117
-565.4
-564.032
-128.666
-143.063
-150.797
-163.175
-174.959
-189.123
-204.701
-222.719
-242.868
-265.779
-291.194
-319.478
-350.632
-384.693
-421.416
-460.541
-501.701
-544.378
-587.847
-631.214
-673.645
-714.289
-752.147
-786.182
-815.392
-838.708
-855.177
-864.404
-865.684
-858.37
-842.245
-816.477
-781.523
-737.671
-685.559
-625.85
-564.739
-516.3
-488.743
-482.965
-493.448
-519.743
-545.354
-565.597
-576.384
-578.921
-577.002
-574.576
-572.756
-571.473
-115.826
-127.797
-136.586
-148.469
-159.97
-173.936
-189.256
-207.007
-226.963
-249.926
-275.815
-304.731
-336.828
-372.466
-411.376
-453.296
-497.934
-544.873
-593.447
-642.609
-691.343
-738.753
-783.806
-825.312
-861.929
-892.356
-915.419
-930.238
-935.929
-932.146
-918.164
-894.478
-858.948
-810.365
-748.231
-675.816
-603.455
-543.286
-504.262
-488.427
-494.726
-516.563
-543.311
-566.927
-580.52
-584.272
-582.902
-580.858
-579.603
-578.847
-108.411
-112.759
-122.612
-133.631
-144.918
-158.393
-173.192
-190.219
-209.498
-232.048
-257.863
-287.068
-319.699
-356.494
-397.167
-441.578
-489.382
-540.211
-593.776
-648.783
-704.037
-758.594
-811.458
-861.247
-906.23
-945.039
-976.255
-998.315
-1010.71
-1012.63
-1002.78
-981.01
-947.891
-893.077
-822.894
-741.801
-665.821
-598.087
-547.628
-522.694
-517.981
-528.779
-548.041
-568.23
-582.044
-587.259
-586.839
-585.372
-584.941
-584.863
-122.126
-101.666
-109.828
-119.629
-130.657
-143.409
-157.416
-173.575
-192.003
-213.771
-239.002
-268.009
-300.841
-338.243
-380.223
-426.712
-477.41
-531.747
-589.642
-650.332
-712.295
-774.2
-835.131
-893.156
-946.733
-994.53
-1035.77
-1066.9
-1087.66
-1096.85
-1091.76
-1070.03
-1037.38
-985.655
-908.399
-828.914
-748.726
-677.453
-624.124
-587
-567.578
-562.868
-568.577
-578.452
-586.306
-589.449
-589.41
-588.721
-588.954
-589.611
-101.997
-87.5999
-96.8792
-107.023
-118.464
-130.823
-143.607
-158.723
-176.224
-197.211
-221.939
-250.977
-284.567
-322.672
-365.972
-414.798
-469.302
-528.709
-591.674
-658.622
-728.801
-800.471
-871.192
-938.762
-1002.27
-1059.32
-1108.91
-1150.01
-1179.84
-1198.13
-1200.35
-1187.61
-1141.73
-1073.45
-995.643
-912.191
-831.316
-761.772
-704.09
-660.302
-630.79
-613.726
-604.819
-600.122
-596.985
-593.602
-591.039
-591.756
-592.864
-594.266
-89.0547
-86.6654
-92.6941
-101.214
-112.084
-124.208
-137.605
-153.626
-172.125
-194.818
-221.959
-253.589
-290.056
-332.315
-380.755
-435.393
-496.344
-562.831
-634.098
-708.677
-786.324
-866.461
-946.648
-1023.72
-1094.54
-1158.85
-1213.87
-1258.15
-1289.11
-1303.68
-1294.37
-1254.65
-1198.35
-1128.96
-1052.22
-970.877
-893.033
-823.936
-767.685
-722.096
-687.442
-661.596
-642.597
-627.625
-615.063
-604.82
-598.447
-596.965
-598.857
-600.844
-79.5917
-84.9162
-90.9493
-98.9954
-109.486
-121.941
-137.102
-154.98
-176.162
-201.505
-231.714
-267.967
-310.414
-359.848
-416.332
-479.702
-549.294
-624.664
-704.691
-789.129
-876.986
-966.49
-1054.78
-1137.83
-1213.26
-1280.23
-1338.77
-1380.31
-1401.75
-1395.57
-1367.32
-1321.36
-1261.95
-1192.89
-1117.23
-1040.53
-967.557
-898.1
-837.111
-784.899
-741.995
-707.558
-679.63
-656.888
-637.696
-621.988
-610.901
-605.776
-608.193
-610.306
-72.3627
-79.7416
-86.878
-95.582
-106.228
-119.26
-135.366
-154.76
-178.588
-206.913
-241.116
-282.492
-331.769
-389.487
-454.929
-527.967
-608.103
-694.896
-787.529
-885.033
-985.256
-1084.8
-1180.03
-1267.43
-1346.56
-1417.99
-1473.31
-1501.87
-1503.41
-1485.18
-1449.91
-1400.18
-1338.8
-1270.31
-1195.99
-1119.01
-1043.2
-970.279
-902.623
-843.501
-792.167
-749.781
-714.729
-686.043
-662.427
-643.121
-628.602
-620.424
-618.964
-622.621
-64.0624
-71.826
-79.6434
-88.9552
-99.6027
-113.183
-130.016
-150.605
-176.277
-207.409
-246.421
-293.823
-350.768
-416.981
-492.626
-577.136
-670.458
-771.798
-879.833
-992.001
-1104.13
-1212.07
-1314.08
-1409.88
-1494.3
-1560
-1597.74
-1611.17
-1603.07
-1577.4
-1536.86
-1483.69
-1419.24
-1349.02
-1273.49
-1193.53
-1112.95
-1035.23
-960.985
-894.464
-836.011
-786.559
-745.812
-712.787
-686.255
-665.129
-649.002
-638.581
-634.162
-641.151
-54.5575
-61.4011
-68.7309
-77.809
-88.859
-102.495
-119.423
-141.104
-168.422
-203.134
-247.076
-301.083
-366.531
-443.118
-530.754
-630.032
-739.553
-857.571
-981.662
-1107.41
-1231
-1349.08
-1461.03
-1562.24
-1637.39
-1684.42
-1708.98
-1712.33
-1696.3
-1663.86
-1616.77
-1559.52
-1493.12
-1418.15
-1338.82
-1255.3
-1169.98
-1086.59
-1006.99
-934.029
-869.811
-815.205
-770.322
-734.489
-706.32
-684.439
-667.989
-657.577
-654.319
-659.984
-42.4527
-48.1348
-54.5159
-62.0256
-72.6207
-86.2898
-103.718
-126.404
-155.042
-192.782
-242.184
-304.014
-379.539
-469.311
-572.725
-689.123
-817.297
-952.638
-1092.52
-1232.91
-1370.64
-1500.51
-1612.1
-1697.72
-1756.94
-1792.02
-1806.42
-1800.14
-1775.01
-1736.05
-1683.32
-1620.21
-1549.42
-1470.39
-1386.46
-1298.95
-1209.55
-1121.16
-1036.76
-959.033
-890.464
-832.343
-785.006
-747.79
-719.251
-697.855
-682.459
-673.493
-671.084