/*--------------------------------*- C++ -*----------------------------------*\
| =========                 |                                                 |
| \\      /  F ield         | OpenFOAM: The Open Source CFD Toolbox           |
|  \\    /   O peration     | Version:  v1912                                 |
|   \\  /    A nd           | Website:  www.openfoam.com                      |
|    \\/     M anipulation  |                                                 |
\*---------------------------------------------------------------------------*/
FoamFile
{
    version     2.0;
    format      ascii;
    class       surfaceScalarField;
    location    "0.26";
    object      phi;
}
// * * * * * * * * * * * * * * * * * * * * * * * * * * * * * * * * * * * * * //

dimensions      [0 3 -1 0 0 0 0];
oriented        oriented;


internalField   nonuniform List<scalar> 
13060
(
0.00566831
0.988566
-0.994234
0.00755038
0.945905
-0.947787
0.00864377
0.900441
-0.901534
0.00922876
0.857243
-0.857828
0.00947151
0.817129
-0.817371
0.00932001
0.779215
-0.779063
0.00890253
0.74306
-0.742642
0.00836597
0.708246
-0.707709
0.0079581
0.674892
-0.674485
0.00752863
0.643067
-0.642637
0.00702058
0.612534
-0.612026
0.00664639
0.583302
-0.582928
0.00637836
0.555237
-0.554969
0.00615833
0.528386
-0.528166
0.00599264
0.502576
-0.50241
0.00587338
0.477722
-0.477602
0.00579735
0.453915
-0.453839
0.0057558
0.431016
-0.430975
0.00572702
0.409112
-0.409083
0.00573799
0.388137
-0.388148
0.00579517
0.368027
-0.368085
0.00624184
0.348483
-0.34893
0.00664658
0.330127
-0.330532
0.00669046
0.312835
-0.312879
0.00656937
0.296117
-0.295996
0.00653167
0.279932
-0.279894
0.00652501
0.264609
-0.264602
0.00641188
0.250199
-0.250086
0.00623643
0.23644
-0.236264
0.00608076
0.223394
-0.223239
0.00590559
0.211142
-0.210967
0.00564381
0.199545
-0.199283
0.00532742
0.188536
-0.18822
0.00497337
0.178174
-0.17782
0.00453724
0.16845
-0.168014
0.00404445
0.159306
-0.158813
0.00352703
0.150795
-0.150278
0.00295871
0.142878
-0.14231
0.00234261
0.135459
-0.134843
0.00170578
0.128544
-0.127907
0.0010574
0.122104
-0.121455
0.000419042
0.116095
-0.115456
-0.000242883
0.110515
-0.109853
-0.000907304
0.105376
-0.104712
-0.00154244
0.100605
-0.0999697
-0.00208766
0.0962515
-0.0957063
-0.00267686
0.0918964
-0.0913072
-0.00291512
0.0883058
-0.0880676
-0.00222274
0.0800045
-0.0806969
0.0525059
-0.0547287
0.00574812
0.982818
0.00620504
0.945448
0.00612739
0.900518
0.00553742
0.857833
0.00500593
0.81766
0.00468515
0.779535
0.00450754
0.743238
0.00421584
0.708537
0.00372011
0.675388
0.00321806
0.643569
0.00285028
0.612902
0.00240424
0.583748
0.00194583
0.555696
0.00152921
0.528803
0.00116888
0.502936
0.000863207
0.478027
0.000614749
0.454164
0.000430879
0.4312
0.0003087
0.409234
0.000232473
0.388213
0.000145755
0.368114
-0.000365963
0.348995
-0.000884957
0.330646
-0.000789355
0.312739
-0.000470134
0.295798
-0.0004213
0.279883
-0.000482579
0.26467
-0.000415352
0.250132
-0.000373249
0.236398
-0.00045596
0.223477
-0.00058147
0.211268
-0.000702248
0.199666
-0.000874662
0.188709
-0.00110753
0.178407
-0.00133574
0.168679
-0.00160277
0.159573
-0.00192414
0.151117
-0.00226748
0.143221
-0.00262618
0.135818
-0.00300202
0.12892
-0.00338321
0.122485
-0.0037583
0.11647
-0.00410002
0.110856
-0.00438168
0.105658
-0.00460092
0.100824
-0.00473163
0.0963822
-0.00485112
0.0920159
-0.00436416
0.0878189
-0.00296417
0.0786045
0.0495418
0.00520714
0.97761
0.00589015
0.944765
0.0055792
0.900829
0.00444981
0.858963
0.00330441
0.818805
0.0018814
0.780958
0.000328629
0.74479
-0.00100576
0.709872
-0.00207193
0.676454
-0.00313928
0.644636
-0.00419874
0.613961
-0.00502755
0.584577
-0.00570827
0.556376
-0.0062873
0.529382
-0.00676116
0.50341
-0.007145
0.478411
-0.0074475
0.454466
-0.00769285
0.431445
-0.00790441
0.409446
-0.00805241
0.388361
-0.00800555
0.368067
-0.00750222
0.348492
-0.00700836
0.330152
-0.00718412
0.312915
-0.0074421
0.296056
-0.00734195
0.279783
-0.00718902
0.264517
-0.00720128
0.250144
-0.00720735
0.236404
-0.00713616
0.223406
-0.00708465
0.211216
-0.00709786
0.199679
-0.00711553
0.188726
-0.00714345
0.178435
-0.00723689
0.168772
-0.00734061
0.159676
-0.00743722
0.151213
-0.00754622
0.14333
-0.00766294
0.135935
-0.00776347
0.12902
-0.00783303
0.122554
-0.00785875
0.116495
-0.00782031
0.110818
-0.00771655
0.105554
-0.00753012
0.100638
-0.00722975
0.0960818
-0.00681404
0.0916002
-0.00576005
0.0867649
-0.00369188
0.0765363
0.0458499
0.00404376
0.973567
0.0030217
0.945787
0.00133111
0.90252
-0.000350472
0.860644
-0.00191677
0.820372
-0.00308432
0.782126
-0.00414048
0.745846
-0.00533188
0.711063
-0.00655172
0.677674
-0.00758719
0.645672
-0.00846704
0.614841
-0.00935335
0.585463
-0.0101924
0.557215
-0.0109333
0.530123
-0.01158
0.504057
-0.012139
0.47897
-0.0126041
0.454932
-0.012964
0.431805
-0.013215
0.409697
-0.0134028
0.388549
-0.013758
0.368422
-0.0144023
0.349136
-0.0148098
0.33056
-0.0145206
0.312626
-0.0141693
0.295704
-0.0141463
0.27976
-0.0141417
0.264513
-0.0139423
0.249945
-0.013754
0.236216
-0.0136619
0.223314
-0.0135742
0.211128
-0.013446
0.199551
-0.0133343
0.188615
-0.0132414
0.178342
-0.0131121
0.168643
-0.0129918
0.159556
-0.012889
0.151111
-0.0127622
0.143203
-0.0126013
0.135774
-0.0124108
0.12883
-0.0121758
0.122319
-0.0118778
0.116197
-0.0115077
0.110448
-0.0110438
0.10509
-0.0104757
0.10007
-0.00972559
0.0953318
-0.00889022
0.0907648
-0.00738083
0.0852555
-0.00449215
0.0736476
0.0413577
0.00287338
0.970693
0.0019496
0.946711
-9.82674e-05
0.904568
-0.0019295
0.862475
-0.00421534
0.822658
-0.00673245
0.784643
-0.0090907
0.748205
-0.011154
0.713126
-0.0128983
0.679419
-0.0145737
0.647347
-0.0161442
0.616411
-0.0174277
0.586747
-0.0184982
0.558286
-0.0194096
0.531034
-0.0201684
0.504816
-0.0207939
0.479596
-0.0212934
0.455431
-0.0216917
0.432204
-0.0220033
0.410009
-0.0221763
0.388722
-0.0219578
0.368204
-0.0213804
0.348558
-0.02098
0.330159
-0.0212086
0.312854
-0.0214266
0.295923
-0.0211895
0.279523
-0.020889
0.264212
-0.0207744
0.24983
-0.0206211
0.236062
-0.0203382
0.223031
-0.0200364
0.210827
-0.0197713
0.199286
-0.0194826
0.188326
-0.0191689
0.178029
-0.0188862
0.16836
-0.0185821
0.159252
-0.0182339
0.150762
-0.0178524
0.142822
-0.0174357
0.135357
-0.0169602
0.128354
-0.0164074
0.121767
-0.0157703
0.11556
-0.0150468
0.109724
-0.0142293
0.104273
-0.0133151
0.0991554
-0.0122948
0.0943114
-0.0109965
0.0894665
-0.00893849
0.0831975
-0.00526788
0.069977
0.0360899
0.00125728
0.969436
-0.0015241
0.949492
-0.00465248
0.907696
-0.00737089
0.865194
-0.0099671
0.825254
-0.012056
0.786732
-0.0140289
0.750178
-0.0160126
0.71511
-0.0178502
0.681256
-0.0193748
0.648872
-0.0206934
0.61773
-0.0219754
0.588029
-0.0231558
0.559466
-0.0241929
0.532071
-0.0250896
0.505712
-0.0258527
0.480359
-0.0264834
0.456062
-0.0269841
0.432704
-0.0273589
0.410383
-0.0276899
0.389053
-0.0282697
0.368784
-0.0290345
0.349323
-0.0293375
0.330462
-0.0288443
0.312361
-0.0283175
0.295396
-0.0282217
0.279427
-0.0280873
0.264078
-0.0276649
0.249408
-0.0272403
0.235638
-0.0269121
0.222703
-0.0265479
0.210462
-0.0260987
0.198836
-0.0256396
0.187867
-0.0251642
0.177553
-0.0246181
0.167814
-0.0240532
0.158687
-0.0234708
0.15018
-0.0228339
0.142185
-0.0221265
0.13465
-0.0213524
0.12758
-0.0205083
0.120922
-0.019586
0.114638
-0.0185794
0.108718
-0.0174575
0.103151
-0.016211
0.0979089
-0.0149659
0.0930663
-0.0132231
0.0877237
-0.0106175
0.0805919
-0.00604283
0.0654024
0.030047
0.000567206
0.968869
-0.00270485
0.952764
-0.00622093
0.911212
-0.00944346
0.868416
-0.0129289
0.828739
-0.0164689
0.790272
-0.0196083
0.753317
-0.0222482
0.71775
-0.0247548
0.683763
-0.0271131
0.65123
-0.0292522
0.619869
-0.0310044
0.589781
-0.0324653
0.560927
-0.0337156
0.533322
-0.0347568
0.506754
-0.0356061
0.481208
-0.0362748
0.45673
-0.0367846
0.433214
-0.0371411
0.41074
-0.0372666
0.389178
-0.0368532
0.36837
-0.0360807
0.348551
-0.03569
0.330072
-0.035934
0.312605
-0.0360234
0.295485
-0.0355315
0.278935
-0.0349881
0.263535
-0.0346469
0.249067
-0.034223
0.235214
-0.033633
0.222113
-0.0329946
0.209824
-0.0323633
0.198205
-0.0316779
0.187182
-0.0309448
0.17682
-0.0302092
0.167078
-0.0294263
0.157904
-0.0285762
0.14933
-0.0276628
0.141272
-0.0266935
0.13368
-0.0256526
0.126539
-0.0245232
0.119793
-0.0233038
0.113419
-0.0220052
0.107419
-0.0206534
0.101799
-0.0192249
0.0964804
-0.0176094
0.0914509
-0.0154593
0.0855735
-0.0122113
0.0773439
-0.00671107
0.0599022
0.023336
-0.000866286
0.969735
-0.00620458
0.958102
-0.0109732
0.915981
-0.0151828
0.872626
-0.018795
0.832351
-0.0218331
0.79331
-0.0247482
0.756232
-0.0276106
0.720613
-0.0300539
0.686206
-0.032023
0.653199
-0.0337666
0.621613
-0.0354441
0.591458
-0.0369873
0.56247
-0.0383285
0.534663
-0.0394785
0.507904
-0.0404504
0.48218
-0.0412404
0.45752
-0.0418627
0.433836
-0.0423312
0.411209
-0.0427447
0.389592
-0.0434583
0.369084
-0.0443105
0.349403
-0.0444504
0.330212
-0.0437246
0.311879
-0.0430046
0.294765
-0.0427259
0.278656
-0.0423335
0.263142
-0.0416
0.248333
-0.0408416
0.234455
-0.0401564
0.221427
-0.0394157
0.209083
-0.0385605
0.19735
-0.0376692
0.18629
-0.0367343
0.175885
-0.0357132
0.166057
-0.034652
0.156843
-0.0335531
0.148231
-0.0323924
0.140111
-0.0311538
0.132442
-0.0298404
0.125226
-0.0284614
0.118414
-0.0270223
0.11198
-0.0255164
0.105913
-0.0239037
0.100186
-0.0223492
0.0949259
-0.0203486
0.0894502
-0.0177932
0.0830182
-0.0136997
0.0732504
-0.0072634
0.0534659
0.0160725
-0.00156614
0.971301
-0.00722046
0.963757
-0.0125424
0.921303
-0.0173682
0.877452
-0.0220866
0.83707
-0.026532
0.797755
-0.0304338
0.760134
-0.0337977
0.723976
-0.0369628
0.689371
-0.0400776
0.656314
-0.0428458
0.624381
-0.0451048
0.593717
-0.0470038
0.564369
-0.0486216
0.536281
-0.0499666
0.509249
-0.0510519
0.483265
-0.0518922
0.458361
-0.0525053
0.434449
-0.0528945
0.411598
-0.052967
0.389664
-0.0523861
0.368503
-0.0513763
0.348393
-0.0508373
0.329673
-0.0509706
0.312013
-0.050851
0.294645
-0.0500624
0.277868
-0.0492056
0.262285
-0.0485391
0.247667
-0.0477613
0.233678
-0.046781
0.220447
-0.0457153
0.208017
-0.0446379
0.196272
-0.0434888
0.185141
-0.0422779
0.174674
-0.0410515
0.164831
-0.0397743
0.155566
-0.0384258
0.146883
-0.0370057
0.138691
-0.0355326
0.130969
-0.034002
0.123695
-0.0323982
0.11681
-0.0307242
0.110306
-0.0290058
0.104195
-0.0273257
0.0985064
-0.025464
0.0930642
-0.023065
0.0870512
-0.019828
0.0797812
-0.0145515
0.0679739
-0.0065652
0.0454795
0.00950735
-0.00314374
0.974445
-0.0108434
0.971456
-0.0172681
0.927728
-0.0228886
0.883072
-0.0275931
0.841774
-0.0316703
0.801833
-0.0355236
0.763987
-0.0391226
0.727575
-0.0422178
0.692466
-0.0447179
0.658814
-0.0469193
0.626582
-0.049036
0.595834
-0.0509856
0.566319
-0.0526704
0.537965
-0.054108
0.510686
-0.0553131
0.48447
-0.0562887
0.459336
-0.0570471
0.435208
-0.0576102
0.412161
-0.0580934
0.390148
-0.0588593
0.369269
-0.0597221
0.349256
-0.0597739
0.329724
-0.0587937
0.311032
-0.0577565
0.293608
-0.057178
0.277289
-0.0564685
0.261576
-0.0553605
0.246559
-0.0541921
0.232509
-0.0530796
0.219335
-0.0518997
0.206838
-0.0505857
0.194959
-0.0492245
0.18378
-0.0478143
0.173264
-0.0463191
0.163335
-0.0447823
0.154029
-0.0432053
0.145306
-0.0415805
0.137066
-0.039895
0.129283
-0.038143
0.121943
-0.0363423
0.11501
-0.0345113
0.108475
-0.0326645
0.102348
-0.0308319
0.0966737
-0.0285514
0.0907838
-0.0258176
0.0843173
-0.021645
0.0756087
-0.0146326
0.0609615
-0.00476784
0.0356147
0.00473951
-0.00459646
0.979041
-0.0117261
0.978586
-0.0182501
0.934252
-0.0246232
0.889445
-0.0304788
0.84763
-0.0359121
0.807266
-0.0406192
0.768694
-0.0447927
0.731749
-0.0487018
0.696375
-0.0525126
0.662624
-0.0559692
0.630039
-0.0588107
0.598676
-0.0612056
0.568714
-0.0632653
0.540025
-0.0649738
0.512395
-0.0663508
0.485847
-0.0674059
0.460392
-0.0681576
0.435959
-0.0686036
0.412607
-0.0686478
0.390192
-0.06796
0.368581
-0.0667398
0.348035
-0.0659391
0.328924
-0.0658316
0.310925
-0.0654836
0.29326
-0.0643792
0.276185
-0.0631327
0.260329
-0.0620736
0.2455
-0.0609011
0.231337
-0.0594954
0.217929
-0.0579718
0.205314
-0.0564311
0.193418
-0.0548177
0.182167
-0.0531416
0.171588
-0.0514573
0.161651
-0.0497351
0.152307
-0.0479574
0.143528
-0.0461199
0.135228
-0.0442422
0.127406
-0.0423325
0.120033
-0.0403792
0.113056
-0.0383923
0.106488
-0.036504
0.10046
-0.0343237
0.0944934
-0.0316897
0.0881498
-0.0281135
0.0807411
-0.0226262
0.0701214
-0.0141284
0.0524638
-0.00296453
0.0244508
0.00177498
-0.00583367
0.984875
-0.0151135
0.987866
-0.0227407
0.941879
-0.0295697
0.896274
-0.0353524
0.853413
-0.0403974
0.812311
-0.0451466
0.773443
-0.0495676
0.73617
-0.0533484
0.700156
-0.0564287
0.665705
-0.0591624
0.632773
-0.0617962
0.601309
-0.0642306
0.571148
-0.0663418
0.542136
-0.0681528
0.514206
-0.0696751
0.487369
-0.0709114
0.461628
-0.0718726
0.436921
-0.0725774
0.413312
-0.0731396
0.390754
-0.0739058
0.369348
-0.0747564
0.348886
-0.0747653
0.328933
-0.0735968
0.309756
-0.0722067
0.29187
-0.0712534
0.275231
-0.0702047
0.259281
-0.0687112
0.244006
-0.0670978
0.229723
-0.0655297
0.216361
-0.0639043
0.203689
-0.0621408
0.191654
-0.060334
0.18036
-0.0584969
0.169751
-0.0565901
0.159744
-0.0546538
0.15037
-0.0526857
0.14156
-0.0506924
0.133235
-0.0486722
0.125385
-0.0466051
0.117966
-0.044509
0.11096
-0.0425577
0.104536
-0.0404433
0.0983453
-0.0379252
0.0919753
-0.034783
0.0850077
-0.0302788
0.0762369
-0.0230867
0.0629292
-0.012442
0.0418191
-0.00180182
0.0138106
-2.68375e-05
-0.00676112
0.991636
-0.0152459
0.996351
-0.0229782
0.949611
-0.0303734
0.90367
-0.0371604
0.8602
-0.0434823
0.818633
-0.0490613
0.779022
-0.0540108
0.741119
-0.0586834
0.704829
-0.0632702
0.670292
-0.0675105
0.637013
-0.0710643
0.604863
-0.0741237
0.574208
-0.0767633
0.544776
-0.0789792
0.516422
-0.0807812
0.489172
-0.08217
0.463017
-0.0831653
0.437916
-0.0837611
0.413908
-0.0838714
0.390864
-0.0831961
0.368672
-0.0818259
0.347516
-0.0807072
0.327814
-0.0802749
0.309324
-0.0796943
0.29129
-0.0783216
0.273859
-0.0766731
0.257632
-0.0751796
0.242513
-0.0736124
0.228156
-0.0717902
0.214539
-0.0698185
0.201717
-0.0678455
0.189681
-0.065819
0.178333
-0.0637368
0.167669
-0.0616697
0.157677
-0.0595846
0.148285
-0.057472
0.139447
-0.0553309
0.131094
-0.0531639
0.123218
-0.050995
0.115797
-0.0489512
0.108916
-0.046848
0.102433
-0.0444109
0.0959082
-0.0416085
0.0891728
-0.0378413
0.0812404
-0.0319928
0.0703885
-0.0225718
0.0535082
-0.00907244
0.0283198
-0.00110832
0.00584649
-0.00113516
-0.0073062
0.998942
-0.0177596
1.0068
-0.0263502
0.958202
-0.033992
0.911311
-0.0405099
0.866718
-0.0464581
0.824581
-0.0520524
0.784617
-0.0572864
0.746353
-0.0619123
0.709455
-0.0657722
0.674152
-0.069237
0.640478
-0.0726105
0.608237
-0.0757052
0.577302
-0.0784337
0.547504
-0.0808074
0.518795
-0.082831
0.491195
-0.0845021
0.464688
-0.0858166
0.43923
-0.0867838
0.414875
-0.0874982
0.391579
-0.0882756
0.36945
-0.0891513
0.348392
-0.0892547
0.327917
-0.0880347
0.308104
-0.0863526
0.289608
-0.0849898
0.272496
-0.0835988
0.256241
-0.0817651
0.240679
-0.0797096
0.226101
-0.0776824
0.212511
-0.0756344
0.199669
-0.0734557
0.187502
-0.0712478
0.176125
-0.0690524
0.165473
-0.0668119
0.155437
-0.0645659
0.146039
-0.0623098
0.137191
-0.0600521
0.128836
-0.057814
0.12098
-0.0556534
0.113637
-0.0535256
0.106789
-0.051173
0.10008
-0.0485461
0.0932814
-0.0451975
0.0858242
-0.0401503
0.0761932
-0.0316413
0.0618795
-0.0186361
0.040503
-0.00518368
0.0148673
-0.000549705
0.00121252
-0.00168486
-0.00723723
1.00618
-0.0165437
1.01611
-0.0248853
0.966543
-0.0330689
0.919495
-0.0404514
0.8741
-0.0475188
0.831648
-0.0538998
0.790998
-0.0597494
0.752203
-0.0653601
0.715065
-0.0709022
0.679694
-0.0760523
0.645628
-0.0805947
0.612779
-0.0845871
0.581295
-0.0881065
0.551024
-0.0911187
0.521808
-0.0936045
0.493681
-0.0955721
0.466655
-0.0970392
0.440698
-0.0980013
0.415837
-0.098379
0.391956
-0.0979293
0.369
-0.0965577
0.34702
-0.0951394
0.326499
-0.0943612
0.307326
-0.09359
0.288836
-0.0920537
0.27096
-0.0900694
0.254257
-0.0881336
0.238743
-0.0861669
0.224134
-0.0839481
0.210293
-0.0815446
0.197265
-0.0791712
0.185129
-0.0767839
0.173738
-0.0743521
0.163042
-0.0719694
0.153054
-0.0696001
0.14367
-0.0672389
0.13483
-0.0649055
0.126503
-0.0626302
0.118705
-0.0604522
0.111459
-0.0581515
0.104488
-0.0555828
0.0975118
-0.0524415
0.09014
-0.0478681
0.0812509
-0.0402868
0.0686119
-0.0282483
0.049841
-0.0121249
0.0243795
-0.00255506
0.00529745
-6.33515e-05
-0.00127919
-0.00174821
-0.00750657
1.01369
-0.0177921
1.0264
-0.0265947
0.975346
-0.034621
0.927521
-0.0417733
0.881252
-0.0484071
0.838282
-0.0547957
0.797386
-0.0608979
0.758305
-0.0665118
0.720679
-0.0714246
0.684606
-0.0758059
0.650009
-0.0801785
0.617152
-0.0842597
0.585376
-0.087939
0.554703
-0.0912034
0.525072
-0.0940561
0.496534
-0.0964683
0.469067
-0.0984261
0.442655
-0.0999149
0.417326
-0.101018
0.39306
-0.101986
0.369967
-0.103029
0.348063
-0.103427
0.326897
-0.10237
0.306269
-0.10046
0.286926
-0.0987139
0.269214
-0.0969848
0.252528
-0.0948565
0.236615
-0.0923974
0.221675
-0.0899005
0.207796
-0.0874326
0.194798
-0.0848529
0.182549
-0.0822538
0.171139
-0.0797342
0.160522
-0.0772115
0.150531
-0.0747124
0.141171
-0.0722527
0.13237
-0.0698619
0.124112
-0.0676041
0.116447
-0.0652994
0.109154
-0.0627331
0.101922
-0.0596924
0.0944711
-0.0555025
0.0859501
-0.0485337
0.0742821
-0.0369467
0.0570249
-0.0199978
0.0328922
-0.0059573
0.010339
-0.000986681
0.000326833
0.000134215
-0.00240009
-0.001614
-0.00546496
1.01915
-0.0146565
1.03559
-0.0229521
0.983641
-0.0312531
0.935822
-0.0391318
0.889131
-0.0468071
0.845958
-0.0539547
0.804534
-0.0607124
0.765063
-0.0673135
0.72728
-0.0739581
0.691251
-0.0804352
0.656486
-0.08624
0.622956
-0.0915058
0.590642
-0.0962917
0.559489
-0.100501
0.529281
-0.104084
0.500117
-0.107034
0.472017
-0.109343
0.444964
-0.111025
0.419008
-0.112017
0.394051
-0.112088
0.370039
-0.110974
0.346949
-0.109414
0.325337
-0.108375
0.30523
-0.107556
0.286106
-0.106005
0.267664
-0.103768
0.250291
-0.101374
0.23422
-0.0989698
0.219271
-0.0963577
0.205184
-0.0935033
0.191943
-0.0906916
0.179738
-0.0879458
0.168393
-0.0851692
0.157745
-0.082475
0.147837
-0.079863
0.138559
-0.0773346
0.129842
-0.0749473
0.121725
-0.0725574
0.114057
-0.0699481
0.106545
-0.066931
0.0989046
-0.0629402
0.0904803
-0.0564196
0.0794295
-0.0451398
0.0630023
-0.0277711
0.0396562
-0.0106435
0.0157646
-0.00263982
0.00233531
-0.000182302
-0.00213068
0.000190823
-0.00277321
-0.00142317
-0.00554738
1.0247
-0.014056
1.0441
-0.0223769
0.991962
-0.030354
0.943799
-0.0376797
0.896457
-0.0448786
0.853156
-0.0519888
0.811644
-0.059088
0.772162
-0.0658443
0.734037
-0.0719993
0.697406
-0.0777733
0.66226
-0.0834384
0.628622
-0.0888758
0.596079
-0.0938999
0.564513
-0.0984973
0.533879
-0.102637
0.504257
-0.106251
0.475631
-0.109292
0.448005
-0.111715
0.421431
-0.113566
0.395903
-0.11506
0.371532
-0.116562
0.348452
-0.117514
0.326288
-0.116921
0.304638
-0.114969
0.284154
-0.112847
0.265541
-0.110808
0.248251
-0.108445
0.231858
-0.105609
0.216435
-0.102564
0.202138
-0.0996112
0.188991
-0.0965948
0.176721
-0.0935216
0.16532
-0.0906024
0.154826
-0.0877773
0.145012
-0.0850323
0.135814
-0.0824452
0.127255
-0.0798934
0.119173
-0.0772125
0.111376
-0.0741752
0.103507
-0.0702526
0.094982
-0.0640267
0.0842544
-0.0529474
0.0683501
-0.0350358
0.0450907
-0.0156648
0.0202852
-0.00454869
0.00464851
-0.000737859
-0.00147552
0.000276532
-0.00314507
0.000240535
-0.00273721
-0.00118264
-0.00227709
1.02698
-0.00943336
1.05125
-0.0167659
0.999295
-0.0244916
0.951525
-0.0321408
0.904106
-0.040204
0.86122
-0.0480583
0.819499
-0.0557138
0.779818
-0.0634564
0.741779
-0.071413
0.705363
-0.0793582
0.670205
-0.0867358
0.635999
-0.0936563
0.603
-0.100184
0.571041
-0.106126
0.539821
-0.111371
0.509503
-0.115859
0.480119
-0.119578
0.451723
-0.122512
0.424366
-0.124602
0.397992
-0.125639
0.372569
-0.125176
0.347989
-0.123774
0.324887
-0.122704
0.303567
-0.121967
0.283417
-0.120609
0.264183
-0.118235
0.245878
-0.115343
0.228966
-0.112404
0.213496
-0.109379
0.199113
-0.10602
0.185632
-0.102609
0.17331
-0.0993695
0.162081
-0.0961564
0.151613
-0.0930573
0.141913
-0.0901887
0.132945
-0.0873578
0.124424
-0.0844988
0.116314
-0.0813703
0.108248
-0.0774368
0.0995739
-0.071327
0.0888721
-0.0604012
0.0733287
-0.0415576
0.0495066
-0.0205967
0.0241297
-0.00714427
0.00683283
-0.00196659
-0.00052917
-0.00028823
-0.00315389
0.000167844
-0.00360115
0.000144836
-0.00271421
-0.0010378
-0.000317648
1.02729
-0.00711163
1.05805
-0.0141183
1.0063
-0.0211997
0.958606
-0.0282522
0.911159
-0.0355611
0.868529
-0.0430267
0.826964
-0.0509465
0.787737
-0.058827
0.74966
-0.0663499
0.712886
-0.0736582
0.677514
-0.081103
0.643444
-0.0882912
0.610188
-0.0950655
0.577815
-0.101512
0.546267
-0.107542
0.515533
-0.112967
0.485543
-0.117684
0.456441
-0.12162
0.428301
-0.124777
0.40115
-0.127312
0.375103
-0.129694
0.350371
-0.131635
0.326828
-0.131868
0.303801
-0.130242
0.281791
-0.127862
0.261802
-0.125476
0.243492
-0.122909
0.226399
-0.119744
0.210331
-0.116044
0.195413
-0.112417
0.182005
-0.108852
0.169745
-0.105132
0.15836
-0.101562
0.148043
-0.0982898
0.138641
-0.0950775
0.129733
-0.091874
0.12122
-0.088531
0.112971
-0.0844358
0.104153
-0.0782128
0.0933509
-0.0672436
0.0779029
-0.0474715
0.0535565
-0.0251621
0.0271972
-0.0102642
0.00923181
-0.00398918
0.000557825
-0.00173425
-0.0027841
-0.000917425
-0.00397071
-0.000483331
-0.00403524
-0.000147384
-0.00305015
-0.00118519
0.0024651
1.02483
-0.00159323
1.0621
-0.00663056
1.01134
-0.012983
0.964959
-0.0200416
0.918217
-0.0279742
0.876461
-0.0360569
0.835047
-0.0442783
0.795959
-0.0530019
0.758383
-0.0622866
0.72217
-0.071731
0.686958
-0.08083
0.652543
-0.0897706
0.619129
-0.0984664
0.586511
-0.106604
0.554404
-0.114085
0.523015
-0.120817
0.492275
-0.126691
0.462315
-0.131609
0.43322
-0.135479
0.405019
-0.138111
0.377735
-0.139059
0.351319
-0.138347
0.326116
-0.137437
0.302891
-0.136938
0.281292
-0.136005
0.260869
-0.133788
0.241276
-0.130494
0.223105
-0.126863
0.206701
-0.123306
0.191856
-0.119412
0.17811
-0.115174
0.165508
-0.111104
0.15429
-0.107196
0.144135
-0.10339
0.134835
-0.0995634
0.125906
-0.0957722
0.117429
-0.0912617
0.108461
-0.0846655
0.0975566
-0.0733667
0.0820521
-0.0527825
0.0573187
-0.0290321
0.0298062
-0.0129267
0.0110918
-0.0054432
0.00174831
-0.00264665
-0.00223872
-0.00153708
-0.00389368
-0.00100252
-0.00450527
-0.000645385
-0.00439238
-0.000279779
-0.00341576
-0.00146497
0.00415243
1.02068
0.00148397
1.06477
-0.00297523
1.0158
-0.0082423
0.970226
-0.014305
0.92428
-0.020995
0.883151
-0.0283299
0.842382
-0.0367028
0.804332
-0.0452915
0.766972
-0.0538649
0.730744
-0.0627213
0.695815
-0.0720027
0.661824
-0.0812815
0.628407
-0.0903199
0.595549
-0.0990762
0.563161
-0.10742
0.531359
-0.115301
0.500156
-0.122412
0.469425
-0.12857
0.439378
-0.133757
0.410205
-0.138047
0.382026
-0.141825
0.355097
-0.145232
0.329523
-0.14696
0.304618
-0.146417
0.28075
-0.144129
0.258581
-0.141374
0.238521
-0.138523
0.220254
-0.135141
0.20332
-0.130842
0.187556
-0.1262
0.173469
-0.12179
0.161098
-0.117271
0.14977
-0.11266
0.139524
-0.108007
0.130182
-0.103405
0.121304
-0.0981403
0.112164
-0.0908371
0.101157
-0.0788315
0.085551
-0.0572618
0.0604823
-0.0318681
0.031925
-0.0142024
0.0121405
-0.00513444
0.00202381
-0.00121892
-0.00216722
0.000380269
-0.00383791
0.000777226
-0.00429063
0.000573533
-0.00430158
0.000166723
-0.00398557
-6.53176e-05
-0.00318372
-0.00153028
0.00940252
1.01127
0.00821395
1.06596
0.00577418
1.01824
0.00116732
0.974833
-0.00447644
0.929924
-0.0114028
0.890078
-0.0191627
0.850142
-0.0273932
0.812562
-0.0365854
0.776164
-0.0467499
0.740908
-0.0573542
0.706419
-0.0680477
0.672518
-0.078951
0.639311
-0.089903
0.606501
-0.100604
0.573861
-0.110841
0.541596
-0.120375
0.509689
-0.129128
0.478179
-0.136881
0.447131
-0.143429
0.416754
-0.148551
0.387147
-0.1518
0.358347
-0.15266
0.330383
-0.152338
0.304296
-0.152273
0.280684
-0.151952
0.25826
-0.150429
0.236998
-0.147272
0.217096
-0.142923
0.198971
-0.13849
0.183122
-0.134009
0.168987
-0.128859
0.155948
-0.123456
0.144368
-0.117995
0.134062
-0.112274
0.124462
-0.105858
0.114888
-0.097379
0.103685
-0.0839516
0.08773
-0.0607653
0.0623648
-0.0332757
0.0329927
-0.0131566
0.0118059
-0.00188847
0.000872427
0.00369719
-0.00356184
0.00593055
-0.00440058
0.00634488
-0.00425224
0.00562035
-0.00356611
0.00411448
-0.00279571
0.00229065
-0.00216174
0.000725804
-0.00161887
-0.00080448
0.00849303
1.00278
0.00954038
1.06491
0.00860403
1.01917
0.00579029
0.977646
0.00162964
0.934084
-0.00354733
0.895254
-0.0100573
0.856651
-0.0180828
0.820588
-0.0266209
0.784702
-0.0356312
0.749919
-0.0455827
0.71637
-0.056323
0.683258
-0.0674374
0.650425
-0.0787433
0.617807
-0.0901358
0.585254
-0.101318
0.552778
-0.112008
0.52038
-0.122107
0.488277
-0.131346
0.45637
-0.139408
0.424816
-0.146248
0.393987
-0.152077
0.364175
-0.157419
0.335726
-0.161755
0.308632
-0.163289
0.282218
-0.162021
0.256992
-0.159189
0.234166
-0.15583
0.213738
-0.152264
0.195404
-0.147765
0.178623
-0.142073
0.163295
-0.136072
0.149947
-0.130017
0.138313
-0.123293
0.127339
-0.115425
0.116593
-0.105051
0.104515
-0.0891769
0.0878108
-0.0630977
0.0616508
-0.0328544
0.0321215
-0.00953388
0.0096722
0.00401407
-0.00174206
0.0106629
-0.00577645
0.0129786
-0.00587752
0.0131222
-0.00454412
0.0119641
-0.00309414
0.00989091
-0.00149295
0.0072399
-0.000144697
0.00429935
0.00077881
0.00156151
0.00111897
0.000757029
0.0157177
0.987063
0.017305
1.06333
0.0177087
1.01877
0.0149879
0.980367
0.0115204
0.937552
0.0061271
0.900648
-0.000355938
0.863135
-0.0075299
0.827762
-0.0163217
0.793494
-0.0265567
0.760154
-0.037519
0.727333
-0.0491392
0.694878
-0.0615544
0.66284
-0.0745077
0.630761
-0.087647
0.598393
-0.100727
0.565858
-0.113461
0.533114
-0.125509
0.500325
-0.136758
0.467619
-0.146854
0.434911
-0.155498
0.402631
-0.162189
0.370866
-0.166203
0.339739
-0.167687
0.310116
-0.168191
0.282723
-0.168363
0.257163
-0.167879
0.233683
-0.165823
0.211681
-0.161679
0.191261
-0.155845
0.17279
-0.150188
0.157638
-0.143981
0.14374
-0.136272
0.130604
-0.126642
0.117709
-0.113769
0.10372
-0.094723
0.085469
-0.0644198
0.0575077
-0.0314476
0.0286786
-0.00630659
0.00698047
0.00805594
-0.00469034
0.014543
-0.00822914
0.0166041
-0.00783751
0.0167129
-0.00598636
0.0157114
-0.00354262
0.0137697
-0.00115238
0.0111914
0.00108532
0.00812538
0.00292132
0.00487532
0.00402888
0.00183051
0.00416377
0.00258754
0.0122699
0.974793
0.0160748
1.05952
0.0180624
1.01678
0.0182271
0.980203
0.0165327
0.939246
0.0135121
0.903668
0.00897217
0.867674
0.00239902
0.834335
-0.0051207
0.801014
-0.0136329
0.768666
-0.0236012
0.737301
-0.0348419
0.706119
-0.0469545
0.674953
-0.0598818
0.643688
-0.0734958
0.612007
-0.0874439
0.579806
-0.10137
0.547041
-0.114871
0.513826
-0.127519
0.480267
-0.139182
0.446575
-0.149702
0.413151
-0.158604
0.379768
-0.166612
0.347747
-0.173833
0.317338
-0.178372
0.287262
-0.179886
0.258677
-0.178564
0.232361
-0.174817
0.207934
-0.170385
0.186828
-0.166085
0.16849
-0.160037
0.151589
-0.151086
0.134789
-0.139081
0.118599
-0.123233
0.101861
-0.0994141
0.0799006
-0.0656148
0.0516697
-0.0311968
0.0230897
-0.00782734
0.00530908
0.00508592
-0.00593278
0.0103524
-0.0099568
0.0124293
-0.0103061
0.0127663
-0.00817444
0.0122663
-0.00548638
0.0111823
-0.00245861
0.00968308
0.000346813
0.00775168
0.00301673
0.00547384
0.00519915
0.003068
0.00643472
0.00103137
0.0062004
0.00361891
0.0194018
0.955391
0.023732
1.05519
0.0261827
1.01433
0.0257667
0.980619
0.0246439
0.940369
0.0217138
0.906598
0.0174874
0.871901
0.0121477
0.839675
0.00493936
0.808222
-0.00404425
0.777649
-0.014201
0.747458
-0.0256704
0.717589
-0.0385244
0.687807
-0.052486
0.657649
-0.0673056
0.626827
-0.0827989
0.5953
-0.098561
0.562803
-0.114125
0.52939
-0.12922
0.495362
-0.143392
0.460747
-0.156145
0.425905
-0.167359
0.390981
-0.176004
0.356391
-0.180934
0.322268
-0.183727
0.290054
-0.184959
0.259909
-0.184703
0.232105
-0.184288
0.20752
-0.182448
0.184988
-0.176219
0.162261
-0.165812
0.141182
-0.152008
0.120985
-0.132242
0.098833
-0.102489
0.0721084
-0.0673051
0.0447169
-0.0364362
0.0208008
-0.0192004
0.00585389
-0.0106182
-0.00327314
-0.00792905
-0.00862191
-0.00619296
-0.0116929
-0.00377448
-0.0127246
-0.0013992
-0.0105497
0.000296965
-0.00718255
0.00114468
-0.00330633
0.0012982
0.000193295
0.00114317
0.00317175
0.000616577
0.00572575
7.14626e-06
0.00704415
-0.000297417
0.00650496
0.00332149
0.0127533
0.942637
0.0199562
1.04799
0.0235756
1.01071
0.026354
0.97784
0.027407
0.939316
0.0268583
0.907147
0.0248277
0.873931
0.0208587
0.843644
0.015548
0.813533
0.00871519
0.784482
-2.43126e-06
0.756175
-0.0104223
0.728008
-0.0222145
0.699599
-0.0355919
0.671027
-0.0503847
0.641619
-0.0662933
0.611208
-0.0830503
0.57956
-0.0998467
0.546186
-0.116139
0.511654
-0.131951
0.476559
-0.146562
0.440515
-0.159933
0.404353
-0.171696
0.368154
-0.182254
0.332827
-0.19059
0.298391
-0.195799
0.265118
-0.19791
0.234216
-0.196717
0.206326
-0.190806
0.179078
-0.180186
0.151641
-0.164948
0.125944
-0.13967
0.0957073
-0.107082
0.0662453
-0.0757496
0.0407757
-0.0536203
0.0225876
-0.0408
0.00798056
-0.034573
-0.000373121
-0.0298759
-0.0079702
-0.0250999
-0.0133979
-0.0208808
-0.015912
-0.0164293
-0.0171761
-0.0120712
-0.0149078
-0.00829361
-0.0109601
-0.00579078
-0.00580916
-0.00429166
-0.00130582
-0.00340895
0.00228904
-0.00271509
0.00503189
-0.00182258
0.00615164
-0.000859312
0.0055417
0.00246218
0.0184212
0.924216
0.0275688
1.03884
0.0298113
1.00847
0.0316759
0.975976
0.0327455
0.938246
0.0322558
0.907637
0.0306581
0.875529
0.028121
0.846181
0.0234533
0.818201
0.0168732
0.791062
0.00879761
0.764251
-0.00108495
0.737891
-0.012845
0.711359
-0.0262576
0.684439
-0.0416525
0.657014
-0.0584822
0.628038
-0.0767493
0.597827
-0.095312
0.564749
-0.113981
0.530323
-0.132479
0.495057
-0.149942
0.457978
-0.165946
0.420358
-0.180187
0.382394
-0.190502
0.343142
-0.19707
0.304959
-0.201732
0.26978
-0.203172
0.235656
-0.199366
0.20252
-0.190711
0.170422
-0.172315
0.133246
-0.145588
0.099216
-0.116162
0.0662817
-0.0926689
0.0427523
-0.0766982
0.0248049
-0.065321
0.0112105
-0.0572824
-5.80446e-05
-0.0494828
-0.00817277
-0.04344
-0.014013
-0.0375153
-0.0193226
-0.0323495
-0.0210779
-0.0273305
-0.0221951
-0.0217978