/*--------------------------------*- C++ -*----------------------------------*\
| =========                 |                                                 |
| \\      /  F ield         | OpenFOAM: The Open Source CFD Toolbox           |
|  \\    /   O peration     | Version:  v1912                                 |
|   \\  /    A nd           | Website:  www.openfoam.com                      |
|    \\/     M anipulation  |                                                 |
\*---------------------------------------------------------------------------*/
FoamFile
{
    version     2.0;
    format      ascii;
    class       volVectorField;
    location    "0.26";
    object      U;
}
// * * * * * * * * * * * * * * * * * * * * * * * * * * * * * * * * * * * * * //

dimensions      [0 1 -1 0 0 0 0];


internalField   nonuniform List<vector> 
6600
(
(39.8426 -0.0379644 0)
(40.1008 -0.0580764 1.71063e-20)
(40.1726 0.0289339 1.20073e-18)
(40.2033 0.128781 0)
(40.2444 0.246974 1.48239e-18)
(40.2893 0.393976 5.07888e-20)
(40.34 0.567166 -5.6386e-20)
(40.3669 0.755339 -6.3935e-20)
(40.3777 0.961007 1.31353e-18)
(40.3923 1.16073 -1.42906e-19)
(40.3599 1.39581 0)
(40.3258 1.63754 -1.74661e-18)
(40.2853 1.88304 0)
(40.2272 2.1416 -2.07236e-18)
(40.1478 2.41256 -2.88052e-18)
(40.0439 2.69237 -1.58647e-18)
(39.9208 2.98585 0)
(39.7747 3.2902 0)
(39.6134 3.60756 2.87322e-18)
(39.4407 3.94172 -2.82404e-18)
(39.2577 4.28759 -4.16703e-19)
(39.0456 4.64232 -1.55622e-18)
(38.8026 4.94943 -3.02687e-18)
(38.5959 5.30586 7.18605e-19)
(38.3299 5.74061 2.57354e-18)
(37.9643 6.18206 0)
(37.6263 6.60401 6.79969e-18)
(37.3199 7.07469 0)
(36.9418 7.58335 -3.71982e-18)
(36.5446 8.10359 -2.55218e-18)
(36.1901 8.64857 -2.6207e-19)
(35.8154 9.22888 -3.34438e-18)
(35.3906 9.85117 -1.32476e-18)
(34.9792 10.4995 2.96829e-18)
(34.5718 11.1975 2.73627e-19)
(34.1406 11.951 3.79559e-18)
(33.7454 12.7502 6.86754e-18)
(33.374 13.6169 7.42764e-18)
(32.9962 14.5385 -5.59227e-18)
(32.6462 15.5338 6.16711e-18)
(32.3239 16.5923 3.43674e-18)
(32.0153 17.7222 0)
(31.7504 18.9244 -1.74554e-18)
(31.5492 20.2268 3.95879e-18)
(31.4222 21.6082 0)
(31.3612 23.1273 1.52655e-18)
(31.3142 24.6008 3.16898e-18)
(31.4873 26.4655 0)
(29.8674 26.9915 0)
(20.902 20.0655 3.16301e-19)
(39.7353 -0.0554189 1.00391e-18)
(40.1715 -0.0569047 -1.05187e-18)
(40.2306 0.0851985 0)
(40.2661 0.226404 -1.99489e-20)
(40.3019 0.3802 1.39867e-18)
(40.3405 0.553147 4.89797e-20)
(40.3823 0.717109 3.33586e-22)
(40.4151 0.892389 -6.09109e-20)
(40.446 1.08452 0)
(40.4537 1.31033 -2.42895e-18)
(40.4624 1.53102 -8.84397e-20)
(40.4695 1.77084 1.6067e-18)
(40.4482 2.02985 1.7353e-18)
(40.4162 2.30314 1.17739e-18)
(40.3609 2.59068 -7.66707e-21)
(40.2824 2.88901 1.83212e-19)
(40.1859 3.2027 -1.71995e-18)
(40.061 3.52699 0)
(39.9163 3.86404 0)
(39.7423 4.21114 2.91833e-18)
(39.5327 4.57416 4.3192e-19)
(39.2969 4.94976 -2.41312e-18)
(39.0856 5.45404 -2.27002e-18)
(38.7932 5.88949 -2.66069e-18)
(38.4805 6.25566 -2.29815e-18)
(38.2186 6.68452 -9.09699e-19)
(37.9092 7.17659 -1.12098e-18)
(37.5461 7.64976 -1.239e-18)
(37.2158 8.13805 3.77824e-18)
(36.895 8.68138 2.34631e-19)
(36.5347 9.25241 -5.01083e-18)
(36.1595 9.84574 4.65537e-18)
(35.8002 10.4709 3.78454e-18)
(35.4295 11.1435 -4.48419e-18)
(35.0476 11.8436 2.73361e-19)
(34.6935 12.5817 -3.88181e-18)
(34.355 13.3799 3.94187e-18)
(34.0348 14.2263 -2.54789e-18)
(33.7484 15.1324 -2.40592e-18)
(33.4867 16.0918 -2.75004e-18)
(33.258 17.1169 0)
(33.0735 18.2069 0)
(32.9297 19.3588 -1.48463e-18)
(32.8465 20.5847 1.57132e-18)
(32.8473 21.8683 2.87523e-18)
(32.938 23.2781 -1.57607e-18)
(33.0673 24.6654 -2.09026e-18)
(33.3079 26.2669 0)
(31.5617 26.3651 -3.15728e-19)
(21.4285 18.9045 -1.78895e-19)
(39.6613 -0.0168267 -5.34978e-20)
(40.2993 -0.0712729 1.07307e-18)
(40.3538 0.0845396 1.09353e-18)
(40.405 0.2272 -2.83345e-22)
(40.4614 0.399439 -1.42768e-19)
(40.5173 0.593629 4.67522e-20)
(40.5753 0.817355 0)
(40.6071 1.05382 0)
(40.6299 1.28964 0)
(40.6443 1.53681 1.30577e-18)
(40.621 1.80964 -8.4448e-20)
(40.5919 2.08804 -1.61742e-18)
(40.555 2.37257 -8.65361e-19)
(40.5017 2.66959 1.98935e-18)
(40.4276 2.97857 1.20698e-18)
(40.3285 3.29685 -1.86003e-19)
(40.2117 3.62893 3.60214e-18)
(40.0728 3.97241 -1.95219e-18)
(39.9212 4.33203 -2.29763e-18)
(39.7626 4.70718 0)
(39.5939 5.09753 -1.59259e-18)
(39.3989 5.47568 1.95468e-18)
(39.1655 5.78478 2.29722e-18)
(38.9881 6.20965 2.69424e-18)
(38.7413 6.71582 2.36568e-18)
(38.3946 7.18776 -4.17482e-19)
(38.0975 7.63608 -5.13867e-19)
(37.8316 8.14439 -1.75251e-18)
(37.4898 8.68486 -6.9343e-19)
(37.1415 9.2277 2.53075e-18)
(36.8485 9.79799 9.22397e-19)
(36.5381 10.4015 0)
(36.1847 11.0383 -4.87475e-18)
(35.8634 11.696 1.38767e-18)
(35.5563 12.4 3.10115e-18)
(35.234 13.1474 5.01087e-18)
(34.9647 13.9288 -2.13153e-18)
(34.7326 14.765 -2.1093e-18)
(34.5086 15.6394 3.06125e-19)
(34.3324 16.5713 0)
(34.2055 17.548 -2.3203e-18)
(34.114 18.5755 0)
(34.0936 19.6482 0)
(34.1698 20.7953 -2.46955e-18)
(34.3464 21.9934 -1.31328e-18)
(34.6007 23.2862 6.14992e-19)
(34.9176 24.6237 7.77848e-19)
(35.1789 25.8664 0)
(33.0828 25.5163 -5.1751e-19)
(21.5472 17.4053 5.4138e-19)
(39.6111 -0.00917578 -9.57235e-19)
(40.4355 -0.0204101 7.51007e-21)
(40.465 0.20712 -1.12367e-18)
(40.5146 0.367572 -1.08653e-18)
(40.5514 0.571199 -1.29093e-18)
(40.5974 0.772476 -6.49182e-19)
(40.6506 0.969672 -4.87053e-20)
(40.6936 1.18515 0)
(40.7197 1.42435 9.52738e-19)
(40.7312 1.68488 1.15926e-18)
(40.744 1.93856 -7.98372e-20)
(40.7487 2.21495 -9.56619e-20)
(40.7279 2.50781 -7.86692e-19)
(40.6982 2.81458 -1.88781e-19)
(40.6435 3.1359 7.91023e-20)
(40.5669 3.46831 -1.78806e-19)
(40.4722 3.81612 1.16157e-19)
(40.3501 4.17468 2.21404e-18)
(40.2088 4.54685 3.14325e-18)
(40.037 4.92782 0)
(39.8314 5.3229 7.51088e-20)
(39.6141 5.7596 0)
(39.4078 6.29464 0)
(39.1243 6.73994 -6.54488e-19)
(38.8523 7.12348 2.17992e-18)
(38.6323 7.59362 2.22923e-18)
(38.3451 8.12742 -4.95694e-19)
(38.0205 8.6307 2.41105e-18)
(37.7471 9.14375 0)
(37.4797 9.71165 0)
(37.1756 10.3039 1.71263e-18)
(36.8752 10.9129 0)
(36.6043 11.5473 1.23548e-18)
(36.3246 12.2238 2.57339e-18)
(36.0489 12.9173 -4.45438e-18)
(35.8173 13.6421 -4.93358e-18)
(35.6113 14.4164 5.10044e-18)
(35.4363 15.2231 -1.90773e-18)
(35.3137 16.074 2.15839e-19)
(35.2324 16.9565 2.5183e-19)
(35.2001 17.8836 4.3083e-18)
(35.234 18.8515 0)
(35.331 19.8537 0)
(35.5048 20.8952 1.08136e-18)
(35.7735 21.9615 4.92944e-19)
(36.1383 23.1128 -4.72921e-19)
(36.5441 24.3013 -3.28048e-19)
(36.6679 25.234 3.62243e-19)
(34.0528 24.3303 1.36907e-18)
(21.1264 15.582 0)
(39.5753 0.0405557 -3.206e-21)
(40.6055 -0.0107678 8.46607e-19)
(40.6429 0.242171 9.20325e-19)
(40.7276 0.382423 1.12625e-18)
(40.7821 0.605385 0)
(40.8465 0.840115 6.39984e-20)
(40.901 1.10912 0)
(40.9251 1.37654 -5.11082e-20)
(40.9495 1.64729 -1.77252e-18)
(40.969 1.93103 -1.16009e-18)
(40.9411 2.24128 7.43622e-20)
(40.9092 2.55604 8.97424e-20)
(40.8723 2.87389 -9.98659e-20)
(40.8162 3.20577 -9.8732e-19)
(40.7394 3.54867 -2.37839e-18)
(40.6388 3.90076 1.60692e-19)
(40.5214 4.26651 -3.09958e-18)
(40.3831 4.64228 2.36578e-19)
(40.2373 5.0342 -1.09757e-18)
(40.0904 5.44086 -6.40069e-19)
(39.9378 5.86092 1.91475e-18)
(39.7485 6.23293 0)
(39.5391 6.57731 0)
(39.3797 7.0426 -1.17896e-18)
(39.1499 7.59115 -1.46869e-18)
(38.8241 8.08113 2.02581e-18)
(38.5714 8.54493 -4.72785e-19)
(38.3487 9.07998 0)
(38.0531 9.64539 6.50342e-19)
(37.7636 10.2032 -7.24393e-19)
(37.5398 10.7834 -1.74064e-18)
(37.305 11.3924 -2.75054e-18)
(37.0339 12.0282 1.05885e-18)
(36.8113 12.6757 -1.18277e-18)
(36.6146 13.3642 1.31612e-18)
(36.4132 14.0848 0)
(36.2797 14.8269 -1.66456e-18)
(36.1972 15.608 -3.11611e-18)
(36.1342 16.4086 1.78055e-18)
(36.1331 17.2471 1.95952e-18)
(36.1954 18.1042 -1.976e-18)
(36.3034 18.9861 0)
(36.4948 19.8815 0)
(36.7919 20.8172 4.08884e-19)
(37.1944 21.7748 -9.60417e-19)
(37.661 22.7836 -2.96546e-19)
(38.126 23.8811 4.4553e-19)
(38.0764 24.3953 -9.1627e-19)
(34.6714 22.9443 2.90539e-19)
(20.1209 13.4848 -2.465e-18)
(39.5881 0.0615523 7.31897e-19)
(40.796 0.0494279 -9.92527e-20)
(40.8183 0.39237 -9.38517e-19)
(40.8866 0.540001 4.4277e-19)
(40.9199 0.794558 0)
(40.9629 1.03719 6.30656e-19)
(41.0228 1.26209 -2.01355e-20)
(41.0731 1.53107 -6.791e-19)
(41.0924 1.80303 8.7605e-19)
(41.0999 2.09291 0)
(41.1115 2.37778 7.04699e-20)
(41.1156 2.6858 5.24094e-19)
(41.0967 3.01084 -8.03138e-19)
(41.0686 3.34908 1.07368e-19)
(41.0158 3.7016 1.21758e-18)
(40.9428 4.06484 -1.49141e-19)
(40.8514 4.44331 1.00702e-18)
(40.735 4.83208 -2.08563e-19)
(40.599 5.23474 2.61818e-19)
(40.4308 5.64817 8.52637e-19)
(40.2326 6.07902 1.17001e-18)
(40.0447 6.58785 -1.10735e-20)
(39.8429 7.13819 4.90313e-19)
(39.5758 7.59246 2.00807e-18)
(39.337 7.98382 0)
(39.1559 8.48053 -1.62068e-18)
(38.8966 9.04169 4.59463e-19)
(38.6118 9.55543 1.5967e-20)
(38.3936 10.0764 -5.98221e-20)
(38.1872 10.6509 6.73193e-19)
(37.9463 11.2457 -1.45539e-18)
(37.7191 11.8487 1.82861e-18)
(37.5385 12.4673 0)
(37.3535 13.1218 0)
(37.1819 13.7797 0)
(37.0719 14.4599 0)
(36.998 15.1761 -1.87643e-18)
(36.96 15.9069 3.53477e-18)
(36.988 16.664 0)
(37.0676 17.43 3.8315e-20)
(37.1982 18.2148 -1.65408e-19)
(37.403 19.0128 9.46051e-19)
(37.6779 19.8195 -5.39927e-19)
(38.0258 20.6325 0)
(38.4544 21.4387 1.42179e-19)
(38.9662 22.3345 -8.32801e-19)
(39.3452 23.1271 5.74567e-19)
(38.9222 23.3622 9.36044e-19)
(34.479 21.2098 3.8492e-18)
(18.3584 11.1097 -2.95624e-18)
(39.6401 0.0875798 -7.30885e-19)
(41.0157 0.0469101 -1.3932e-18)
(41.0737 0.435499 1.18187e-20)
(41.1559 0.564135 -4.44518e-19)
(41.2317 0.853641 3.95942e-19)
(41.2857 1.13 -1.56707e-20)
(41.3316 1.43786 5.25434e-19)
(41.3589 1.72807 6.81817e-19)
(41.3869 2.04255 6.81595e-19)
(41.4143 2.36718 -2.56141e-20)
(41.3926 2.71978 -4.43884e-19)
(41.3633 3.07356 -8.45463e-20)
(41.3277 3.42953 7.1049e-19)
(41.2743 3.79922 0)
(41.2006 4.17866 0)
(41.1038 4.56728 7.15493e-20)
(40.991 4.96841 1.22715e-18)
(40.8587 5.37802 0)
(40.7217 5.80079 1.19531e-19)
(40.5869 6.23453 -1.28694e-18)
(40.4495 6.67352 -1.19667e-18)
(40.2626 7.03626 5.34681e-19)
(40.08 7.40834 0)
(39.9481 7.91155 -1.10777e-18)
(39.7404 8.49047 -3.14429e-19)
(39.4372 8.98526 3.50754e-19)
(39.2246 9.44976 0)
(39.0463 9.99377 0)
(38.7999 10.5629 -6.78019e-19)
(38.5672 11.116 -5.40783e-19)
(38.4092 11.6823 2.17152e-18)
(38.2499 12.27 -7.75262e-19)
(38.0569 12.8793 -8.50444e-19)
(37.9239 13.4854 1.87273e-18)
(37.8306 14.1242 -2.45076e-18)
(37.7395 14.7814 -4.222e-19)
(37.7228 15.4457 1.24837e-18)
(37.7663 16.1299 -1.28909e-18)
(37.8319 16.8138 1.00288e-18)
(37.9602 17.5161 4.8413e-20)
(38.1549 18.2131 -2.08643e-19)
(38.3913 18.91 -4.70583e-19)
(38.705 19.5921 -5.75249e-20)
(39.1183 20.2823 6.39007e-20)
(39.6298 20.9828 1.13695e-19)
(40.1958 21.7983 0)
(40.4032 22.2516 5.92694e-19)
(39.5161 22.1565 1.3962e-18)
(33.7445 19.2786 -2.61376e-18)
(15.8153 8.55482 -8.80492e-19)
(39.7251 0.114564 5.23296e-19)
(41.2663 0.100663 6.38564e-19)
(41.3028 0.577282 5.03946e-21)
(41.3787 0.729828 -2.94232e-19)
(41.4061 1.05294 -7.33549e-19)
(41.4607 1.32316 3.68616e-19)
(41.5267 1.58417 -9.22951e-19)
(41.5745 1.90065 2.2686e-19)
(41.6004 2.21758 -6.61093e-19)
(41.6064 2.53327 -3.26481e-19)
(41.6202 2.84982 8.54192e-19)
(41.6312 3.19006 -5.83308e-19)
(41.6184 3.5497 -5.06613e-19)
(41.5995 3.92066 -2.82102e-21)
(41.5558 4.30644 -3.12781e-19)
(41.4922 4.7025 4.33539e-19)
(41.4115 5.11308 -6.16944e-19)
(41.3069 5.53324 0)
(41.1835 5.9663 0)
(41.026 6.41057 0)
(40.837 6.87063 -1.48579e-19)
(40.6751 7.43296 -5.61329e-19)
(40.4907 8.00772 -5.35396e-19)
(40.2366 8.46688 -2.2973e-19)
(40.0259 8.86225 0)
(39.8822 9.37346 0)
(39.6591 9.94655 6.80582e-19)
(39.4121 10.4539 -4.26283e-19)
(39.2425 10.9621 -7.06878e-20)
(39.097 11.5186 8.36125e-20)
(38.9152 12.0915 1.29744e-21)
(38.7482 12.6623 -5.5228e-19)
(38.6459 13.2346 3.62828e-19)
(38.5467 13.8377 -1.12259e-18)
(38.4592 14.4286 9.39405e-19)
(38.4469 15.0285 5.68626e-19)
(38.4767 15.6486 1.11642e-19)
(38.533 16.2655 -4.40589e-19)
(38.659 16.8906 -5.7964e-19)
(38.8384 17.5042 -4.07506e-19)
(39.0568 18.1152 -1.89148e-19)
(39.3461 18.7162 -3.70383e-20)
(39.7061 19.3094 4.11965e-20)
(40.1274 19.887 0)
(40.6049 20.451 0)
(41.0724 21.0582 0)
(41.0478 21.2339 0)
(39.3334 20.7022 0)
(31.8428 16.9437 -1.6294e-18)
(12.33 5.81216 2.68286e-18)
(39.8389 0.156854 -5.28575e-19)
(41.558 0.0935769 0)
(41.6321 0.616168 0)
(41.7239 0.752617 2.98864e-19)
(41.802 1.11919 3.18691e-19)
(41.8563 1.42882 -3.66311e-19)
(41.8991 1.76612 4.10745e-19)
(41.9366 2.09304 -2.27582e-19)
(41.9678 2.44155 1.82092e-19)
(42.0038 2.81073 3.22359e-19)
(42.0055 3.20933 -3.57675e-19)
(41.9839 3.60575 2.86366e-19)
(41.96 4.00057 6.93514e-19)
(41.917 4.41035 0)
(41.8512 4.82917 3.63097e-19)
(41.7648 5.25577 -4.86572e-19)
(41.6611 5.69305 -4.58281e-21)
(41.5401 6.13704 -5.02732e-19)
(41.4146 6.5904 6.83889e-19)
(41.2919 7.04875 0)
(41.1719 7.50694 0)
(40.9959 7.8754 5.1989e-19)
(40.8233 8.24784 1.30229e-19)
(40.7187 8.7723 -7.27588e-19)
(40.5365 9.36938 -2.40577e-19)
(40.2595 9.86607 7.63944e-19)
(40.0805 10.3188 -1.2582e-18)
(39.9453 10.8524 1.01688e-18)
(39.7483 11.4084 -6.12015e-19)
(39.5605 11.937 4.58869e-19)
(39.4538 12.4643 -2.56262e-19)
(39.3595 13.0037 9.66421e-19)
(39.2295 13.5607 -2.30235e-19)
(39.1585 14.0959 7.27678e-19)
(39.1438 14.6542 0)
(39.1309 15.2192 3.21898e-19)
(39.1841 15.7756 4.34272e-19)
(39.3012 16.3339 1.04471e-19)
(39.4366 16.8745 -1.17765e-19)
(39.6211 17.4169 2.48462e-19)
(39.8689 17.9373 -1.64651e-19)
(40.1517 18.4417 -1.47501e-19)
(40.4961 18.9115 5.3366e-19)
(40.9234 19.3677 2.48414e-19)
(41.4875 19.9209 2.90392e-19)
(41.7226 20.1828 -4.48138e-19)
(41.3958 20.1151 0)
(38.6266 18.9791 1.38654e-18)
(29.1633 14.2941 -7.28691e-19)
(7.99921 2.93679 0)
(39.9938 0.17975 1.12901e-21)
(41.8879 0.163735 -1.43078e-22)
(41.9325 0.754606 -1.08342e-19)
(42.0087 0.912944 0)
(42.0407 1.30497 -2.59868e-21)
(42.1007 1.59887 -5.49379e-20)
(42.1784 1.90867 0)
(42.2321 2.25938 7.57499e-20)
(42.2598 2.61141 -1.91691e-19)
(42.2781 2.96352 1.00975e-20)
(42.2927 3.31186 1.4004e-19)
(42.3167 3.68334 -2.05459e-19)
(42.318 4.0791 -2.05851e-19)
(42.3108 4.48534 0)
(42.2827 4.90445 0)
(42.233 5.33465 0)
(42.1672 5.77744 -2.3633e-19)
(42.0772 6.2296 5.04855e-19)
(41.9697 6.69345 -8.85943e-19)
(41.8274 7.1664 8.32681e-20)
(41.6514 7.6541 -1.93413e-19)
(41.5114 8.24871 -4.11136e-19)
(41.3487 8.85288 1.09755e-18)
(41.1106 9.32263 1.01635e-18)
(40.9119 9.70924 0)
(40.7927 10.2098 -6.12803e-19)
(40.6071 10.7793 1.15423e-18)
(40.3919 11.2699 -8.06572e-19)
(40.2541 11.7462 3.31816e-19)
(40.1613 12.2636 -1.85917e-19)
(40.0265 12.7928 2.02068e-19)
(39.8934 13.3099 -6.10929e-19)
(39.8404 13.8104 7.74667e-19)
(39.8032 14.3386 -6.76919e-19)
(39.7624 14.8422 -2.35949e-19)
(39.8037 15.3404 4.88635e-19)
(39.8905 15.8442 -4.29681e-19)
(39.9839 16.3303 1.58635e-19)
(40.1401 16.8116 2.99647e-20)
(40.3502 17.2658 0)
(40.5814 17.7019 -1.83736e-20)
(40.8741 18.1113 1.49121e-19)
(41.2378 18.5063 9.42859e-20)
(41.6782 18.9201 -6.70333e-19)
(42.0401 19.2182 -7.31784e-20)
(42.0575 19.2616 -6.66828e-19)
(41.0734 18.8324 0)
(36.7772 16.8682 1.3852e-18)
(25.0748 11.0847 -2.36307e-18)
(4.72039 0.921195 0)
(40.2029 0.25937 0)
(42.27 0.170229 0)
(42.34 0.769675 1.0687e-19)
(42.4269 0.910591 -1.54911e-21)
(42.5048 1.3557 -9.22091e-21)
(42.5737 1.68356 5.79451e-20)
(42.6232 2.0592 0)
(42.6698 2.42072 -7.59233e-20)
(42.7152 2.80869 -1.16586e-20)
(42.7661 3.2123 0)
(42.7977 3.65615 -1.44063e-19)
(42.7912 4.09503 -7.57453e-20)
(42.7829 4.5315 -9.85235e-21)
(42.7557 4.98147 1.09832e-20)
(42.7028 5.44145 0)
(42.6288 5.90718 0)
(42.5365 6.38126 2.29182e-19)
(42.4272 6.85904 7.76026e-20)
(42.3115 7.34296 9.44891e-20)
(42.1952 7.82644 2.87952e-20)
(42.0835 8.30073 -6.77264e-20)
(41.9162 8.68225 3.9687e-20)
(41.7502 9.05225 -4.79146e-19)
(41.6578 9.5696 -2.22813e-19)
(41.5029 10.1714 1.65284e-19)
(41.2531 10.6696 2.78269e-19)
(41.0874 11.0964 -3.55764e-19)
(40.9781 11.5972 -2.96748e-19)
(40.8243 12.1247 0)
(40.6576 12.6152 0)
(40.571 13.0855 0)
(40.5201 13.5572 3.88719e-19)
(40.4291 14.0466 1.63484e-19)
(40.3786 14.4956 2.42037e-19)
(40.404 14.9577 -1.3097e-19)
(40.429 15.4198 -1.13801e-19)
(40.4958 15.8599 1.47203e-19)
(40.6275 16.289 -8.37466e-20)
(40.7768 16.6877 2.95833e-20)
(40.9507 17.0764 -5.61383e-20)
(41.1825 17.4325 -1.22385e-19)
(41.4496 17.7674 1.36456e-19)
(41.7665 18.0751 0)
(42.1822 18.3927 4.20396e-19)
(42.3109 18.4745 -2.2805e-19)
(42.033 18.3159 3.66265e-19)
(40.0694 17.3468 0)
(33.8903 14.3815 -5.79611e-19)
(20.1585 7.57978 3.39138e-19)
(2.55037 0.0276825 0)
(40.4633 0.258139 -3.31275e-20)
(42.6657 0.235366 0)
(42.7083 0.89686 -5.51646e-20)
(42.7902 1.05812 7.01699e-20)
(42.8127 1.50772 1.00061e-20)
(42.8824 1.8265 -1.61393e-21)
(42.9711 2.16803 1.79618e-21)
(43.045 2.5594 0)
(43.0897 2.94271 9.7131e-21)
(43.121 3.33342 -6.52961e-20)
(43.1457 3.70391 3.64519e-21)
(43.183 4.11052 -1.1294e-20)
(43.2032 4.54178 -3.62466e-20)
(43.2151 4.98304 -1.00147e-21)
(43.2025 5.43814 4.29722e-23)
(43.1696 5.90303 0)
(43.119 6.37979 7.38242e-20)
(43.0428 6.86509 -9.93427e-20)
(42.9493 7.35966 1.15029e-19)
(42.8235 7.86115 2.81577e-21)
(42.661 8.37423 -1.64987e-20)
(42.53 8.98183 0)
(42.3849 9.6144 -3.18699e-20)
(42.1528 10.1024 -6.5948e-20)
(41.9439 10.4763 -2.36308e-19)
(41.8247 10.9465 -2.79758e-19)
(41.6701 11.4972 0)
(41.4717 11.9655 1.87343e-19)
(41.332 12.3977 2.12951e-19)
(41.2678 12.8571 -1.40737e-19)
(41.1617 13.3284 2.04836e-19)
(41.0287 13.783 7.92817e-20)
(40.9834 14.2 -1.28352e-19)
(40.9777 14.6434 5.61188e-20)
(40.9462 15.0581 1.32095e-19)
(40.9905 15.4536 1.05972e-19)
(41.088 15.8437 5.53259e-20)
(41.1716 16.2057 0)
(41.2988 16.5567 -5.55402e-20)
(41.4833 16.8714 1.15048e-19)
(41.6755 17.1603 1.26063e-19)
(41.9144 17.4185 -1.84213e-19)
(42.292 17.7219 3.2511e-19)
(42.4445 17.8286 -1.62983e-19)
(42.3736 17.7764 5.57013e-19)
(41.3931 17.2726 -2.05241e-20)
(37.9251 15.6748 0)
(29.2672 11.7117 1.14905e-18)
(12.5228 3.95177 -9.66063e-19)
(0.598876 -0.152927 -3.27327e-19)
(40.7431 0.317795 3.31547e-20)
(43.1041 0.221172 -1.05545e-19)
(43.177 0.880085 5.57233e-20)
(43.2574 1.02552 -6.86141e-20)
(43.3434 1.51474 -7.82495e-20)
(43.422 1.85612 -4.16824e-21)
(43.4905 2.26515 2.34299e-21)
(43.5565 2.65654 0)
(43.6191 3.07625 -1.20109e-19)
(43.7002 3.50995 1.3079e-19)
(43.7727 4.00075 0)
(43.792 4.48108 -7.06635e-21)
(43.8078 4.95789 -3.83219e-20)
(43.798 5.45442 8.63228e-20)
(43.7614 5.95766 -1.05922e-19)
(43.7018 6.46604 1.27285e-21)
(43.6201 6.98133 7.58397e-21)
(43.519 7.49647 0)
(43.4067 8.0127 6.7344e-20)
(43.2859 8.52336 4.22682e-20)
(43.1684 9.01867 -4.2716e-22)
(43.0033 9.42561 0)
(42.8238 9.78653 0)
(42.7268 10.2767 1.0099e-19)
(42.5897 10.8708 -1.02968e-20)
(42.3536 11.3703 4.36622e-20)
(42.1686 11.7692 -3.11808e-20)
(42.0558 12.2214 1.82778e-20)
(41.9301 12.7063 -1.07222e-19)
(41.756 13.1543 -2.44033e-20)
(41.6432 13.5605 -1.5047e-19)
(41.6038 13.954 -1.96809e-21)
(41.5302 14.3738 3.09274e-20)
(41.4608 14.7399 5.19046e-21)
(41.4845 15.1066 5.39202e-21)
(41.5154 15.4719 2.98588e-20)
(41.5502 15.8069 0)
(41.645 16.1259 8.83874e-20)
(41.7698 16.4064 -3.17077e-20)
(41.8896 16.6705 -1.01119e-19)
(42.0563 16.9007 1.52468e-19)
(42.3319 17.1724 -1.51232e-20)
(42.4592 17.2902 -1.61446e-19)
(42.46 17.297 -1.37681e-20)
(41.9453 17.0477 -2.79091e-19)
(39.9032 16.1333 -7.10351e-19)
(34.371 13.7032 3.96485e-19)
(22.5848 8.56962 0)
(5.93829 1.56632 -5.53679e-19)
(-0.601915 -0.120023 1.07921e-18)
(41.0929 0.284617 2.29161e-22)
(43.543 0.265209 1.05952e-19)
(43.5954 0.968675 -4.47182e-20)
(43.6695 1.12447 -1.33356e-21)
(43.7044 1.60628 7.83473e-20)
(43.7902 1.93087 0)
(43.8986 2.30254 0)
(43.9959 2.7194 -4.44442e-21)
(44.0664 3.13337 2.2784e-19)
(44.1225 3.55988 -6.96827e-20)
(44.1669 3.96105 6.0732e-21)
(44.2286 4.404 -1.34142e-20)
(44.2757 4.87408 3.00421e-20)
(44.31 5.35361 -2.19956e-20)
(44.3184 5.84794 1.86198e-19)
(44.3024 6.35421 -4.6907e-20)
(44.2641 6.87127 4.98514e-20)
(44.1991 7.39559 9.02396e-21)
(44.1138 7.92618 -6.58822e-20)
(43.9971 8.45933 -2.32391e-20)
(43.8413 8.99668 -1.54339e-21)
(43.6998 9.60614 -9.14743e-21)
(43.5602 10.2699 0)
(43.3145 10.7923 3.51929e-21)
(43.0637 11.1612 -1.06516e-21)
(42.921 11.5946 -4.38244e-20)
(42.7789 12.1117 1.14582e-21)
(42.5727 12.5576 8.84514e-21)
(42.3904 12.9482 0)
(42.3132 13.3378 -1.08149e-21)
(42.2187 13.7434 -1.78856e-20)
(42.0598 14.1393 -2.65926e-20)
(41.9765 14.4737 3.67212e-20)
(41.9722 14.8333 1.46348e-21)
(41.928 15.1708 -2.36776e-20)
(41.9305 15.478 -2.32381e-20)
(41.9999 15.7722 0)
(42.0517 16.033 -6.02896e-20)
(42.1119 16.2842 -6.10944e-20)
(42.2323 16.4989 6.82406e-20)
(42.4074 16.7306 -9.15576e-20)
(42.5318 16.89 1.16475e-19)
(42.5605 16.9197 0)
(42.28 16.8296 1.0433e-19)
(40.9582 16.2843 0)
(37.1799 14.6787 1.61962e-19)
(28.5934 11.0558 -3.68419e-19)
(13.51 4.63602 2.08526e-19)
(2.13262 0.548933 0)
(-1.18371 -0.113697 6.06625e-20)
(41.3746 0.296071 4.23029e-23)
(44.0044 0.223202 4.83807e-23)
(44.0877 0.888723 4.58229e-20)
(44.1729 1.02398 2.43726e-22)
(44.2654 1.5401 2.2449e-21)
(44.3789 1.87224 3.12663e-22)
(44.4723 2.30523 -3.48024e-22)
(44.5704 2.7191 7.98121e-22)
(44.6691 3.16797 -9.78341e-20)
(44.7864 3.6322 -2.34378e-21)
(44.9077 4.15907 -1.12488e-21)
(44.9712 4.68436 2.50402e-21)
(45.0182 5.21222 7.24286e-20)
(45.0385 5.7593 -8.06754e-20)
(45.0234 6.31655 -9.30954e-20)
(44.9803 6.87768 4.69942e-20)
(44.9107 7.44275 -4.78929e-20)
(44.8142 8.00619 -2.56712e-21)
(44.698 8.56637 -2.74067e-21)
(44.5609 9.11532 0)
(44.4179 9.64448 -3.04208e-21)
(44.2398 10.0945 -1.15262e-21)
(44.0241 10.4551 1.28837e-21)
(43.8919 10.9027 0)
(43.7542 11.4823 0)
(43.5049 11.9917 2.01794e-20)
(43.2663 12.3761 0)
(43.1134 12.778 -8.85653e-21)
(42.9897 13.2069 0)
(42.7896 13.6141 8.9341e-22)
(42.6021 13.9627 -1.02996e-20)
(42.5319 14.2743 1.42937e-21)
(42.4634 14.6277 -1.74757e-20)
(42.3523 14.9256 2.82221e-21)
(42.3335 15.2085 1.31138e-20)
(42.351 15.4901 2.67821e-20)
(42.3358 15.7408 -1.42017e-21)
(42.3573 15.9796 0)
(42.4382 16.178 -1.13378e-21)
(42.5252 16.3841 1.39691e-21)
(42.6203 16.5779 0)
(42.6548 16.6327 -2.04377e-21)
(42.4328 16.6048 -1.11024e-20)
(41.5122 16.2698 -9.22276e-20)
(38.7921 15.1441 -1.90099e-21)
(32.372 12.5093 0)
(20.407 7.54948 0)
(5.6789 1.80512 2.70859e-20)
(-0.374771 0.165831 -2.69707e-20)
(-1.41105 -0.107209 6.35731e-20)
(41.765 0.27607 1.28672e-19)
(44.4388 0.231992 1.42682e-19)
(44.5012 0.925803 7.84747e-20)
(44.5913 1.04554 9.15377e-20)
(44.637 1.54647 9.6446e-20)
(44.7594 1.85527 -1.1268e-19)
(44.9045 2.24709 0)
(45.0462 2.67796 0)
(45.1594 3.11261 8.5235e-20)
(45.2528 3.57338 2.34349e-21)
(45.3217 4.00204 -1.03311e-19)
(45.4285 4.48467 -6.75895e-21)
(45.5126 4.99915 -1.31092e-19)
(45.5782 5.52881 1.46606e-19)
(45.6141 6.07341 1.76452e-19)
(45.6201 6.63245 0)
(45.5965 7.20447 0)
(45.5396 7.78299 2.5665e-21)
(45.4562 8.36483 2.73994e-21)
(45.3371 8.94383 -1.32539e-19)
(45.1818 9.52036 3.03999e-21)
(45.0091 10.1363 0)
(44.8483 10.8382 0)
(44.5731 11.4243 -1.59944e-20)
(44.2502 11.81 -8.23745e-20)
(44.0496 12.2036 1.99441e-20)
(43.8883 12.6792 0)
(43.6493 13.1066 -4.51507e-20)
(43.3892 13.4718 0)
(43.2382 13.7919 -8.93086e-22)
(43.1366 14.1221 0)
(42.95 14.4686 0)
(42.7902 14.7305 1.2797e-20)
(42.7543 15.0085 1.90553e-20)
(42.6962 15.2804 0)
(42.6325 15.5174 0)
(42.6409 15.7392 1.41935e-21)
(42.6691 15.9253 0)
(42.6825 16.1229 1.11778e-21)
(42.7481 16.3356 -4.78235e-20)
(42.7813 16.4066 5.72402e-20)
(42.5846 16.4057 7.58545e-21)
(41.9214 16.2025 5.97279e-21)
(39.9084 15.406 -9.81911e-20)
(34.8769 13.4089 -6.0909e-20)
(25.0036 9.41288 3.42954e-19)
(9.69548 3.38234 -1.554e-19)
(1.37922 0.706123 -1.82312e-19)
(-1.53499 0.0533986 1.50106e-19)
(-1.34403 -0.0227703 0)
(41.9832 0.175687 -1.28172e-19)
(44.8558 0.146104 1.98515e-19)
(44.9679 0.760943 -7.68199e-20)
(45.069 0.860217 1.26917e-19)
(45.1977 1.37164 -1.01791e-19)
(45.3471 1.68401 1.15824e-19)
(45.4869 2.12177 9.22574e-21)
(45.6352 2.54429 -1.02718e-20)
(45.7923 3.00958 -7.32165e-20)
(45.9735 3.49688 -1.33277e-20)
(46.1485 4.05713 1.09297e-19)
(46.2854 4.62906 3.07147e-19)
(46.3838 5.21438 -2.08761e-19)
(46.4494 5.82238 -1.33096e-19)
(46.4687 6.44849 -6.34479e-19)
(46.4534 7.07878 2.68582e-20)
(46.3996 7.71532 -2.99754e-20)
(46.3097 8.34813 2.96256e-19)
(46.1856 8.97555 3.48186e-20)
(46.0278 9.5868 9.34664e-20)
(45.8411 10.1741 0)
(45.6245 10.6898 0)
(45.3546 11.0783 0)
(45.1456 11.4881 0)
(44.9732 12.052 8.37897e-20)
(44.6968 12.5994 -2.39194e-19)
(44.371 12.9934 0)
(44.1256 13.3539 1.71252e-19)
(43.96 13.7138 0)
(43.7316 14.0776 0)
(43.4394 14.3875 -1.38754e-19)
(43.2811 14.6149 6.33316e-20)
(43.2065 14.8976 -1.4067e-19)
(43.0602 15.1405 4.40924e-20)
(42.965 15.3509 0)
(42.9522 15.557 0)
(42.9129 15.7367 6.28529e-20)
(42.8689 15.9281 -2.2092e-19)
(42.9226 16.139 0)
(42.9435 16.2185 -1.54458e-19)
(42.7435 16.2339 2.40539e-19)
(42.2015 16.1021 -2.84149e-19)
(40.629 15.5315 1.66702e-19)
(36.4675 13.9322 -2.03636e-19)
(27.9588 10.5224 5.16921e-19)
(13.8767 5.01848 -4.57359e-19)
(3.27923 1.35401 3.0163e-19)
(-0.906205 0.346329 -6.75317e-19)
(-1.96211 0.0829048 8.04986e-19)
(-1.19374 0.049137 -5.15975e-19)
(42.2488 0.177909 -3.60727e-19)
(45.2274 0.117482 5.29365e-20)
(45.3184 0.709036 0)
(45.4258 0.797375 -2.16969e-19)
(45.5211 1.26736 -5.87203e-19)
(45.6892 1.54407 1.87491e-20)
(45.8902 1.93365 0)
(46.0967 2.3628 0)
(46.279 2.80913 -2.88508e-20)
(46.4321 3.2947 3.21385e-20)
(46.5641 3.76012 -6.47397e-19)
(46.7208 4.28081 4.31313e-19)
(46.8627 4.84531 3.46929e-19)
(46.9808 5.43335 -4.74848e-19)
(47.0616 6.04174 4.37045e-19)
(47.1026 6.67449 6.746e-20)
(47.1045 7.32263 -7.41931e-19)
(47.0604 7.98155 -1.03258e-18)
(46.9806 8.64182 0)
(46.851 9.29758 4.40226e-19)
(46.6787 9.93964 4.75609e-19)
(46.4623 10.5925 0)
(46.2583 11.3518 -5.41413e-19)
(45.9357 12.0315 0)
(45.5296 12.4825 0)
(45.2143 12.8466 2.38444e-19)
(44.9865 13.2783 1.83372e-19)
(44.7014 13.6975 3.49426e-19)
(44.3418 14.0594 0)
(44.043 14.3237 0)
(43.8886 14.5583 6.25775e-20)
(43.6947 14.8551 8.45475e-20)
(43.4464 15.0547 2.76173e-19)
(43.3305 15.2454 -1.62887e-21)
(43.2658 15.4435 3.90162e-22)
(43.1562 15.6149 -2.3985e-19)
(43.0888 15.7857 -5.11769e-21)
(43.1326 15.9749 3.07787e-19)
(43.1213 16.065 1.87868e-19)
(42.9182 16.0882 1.03335e-19)
(42.433 16.0061 2.53378e-19)
(41.1092 15.5743 1.17844e-20)
(37.6181 14.2669 -3.41852e-19)
(30.0356 11.2457 -1.99639e-19)
(16.9067 6.17198 -5.6491e-19)
(5.1754 2.02456 6.38336e-19)
(-0.0701184 0.611797 -2.85723e-19)
(-1.86451 0.213292 0)
(-1.99784 0.135063 0)
(-0.999279 0.0857313 1.00794e-19)
(42.3857 0.0470362 1.15188e-18)
(45.5252 0.00833426 4.90156e-19)
(45.6891 0.4829 -4.96539e-19)
(45.8286 0.523121 1.69137e-20)
(46.003 0.984237 1.2124e-18)
(46.2169 1.2353 -2.14725e-20)
(46.4244 1.66673 0)
(46.6522 2.07747 -9.80164e-19)
(46.8835 2.53698 -3.36537e-20)
(47.1581 3.04152 -1.17741e-21)
(47.4265 3.63791 1.44085e-18)
(47.6329 4.24493 -6.86197e-19)
(47.8246 4.87947 1.1322e-21)
(47.9762 5.56235 4.09763e-19)
(48.0622 6.27475 0)
(48.0977 6.99648 0)
(48.0785 7.73184 5.73832e-19)
(48.0099 8.46409 8.36412e-19)
(47.8849 9.19812 0)
(47.7079 9.91097 -4.3879e-19)
(47.4775 10.5947 -4.73981e-19)
(47.2042 11.2113 -1.37812e-19)
(46.8494 11.674 2.60668e-20)
(46.5325 12.0873 5.5125e-19)
(46.2828 12.6446 1.7073e-19)
(45.9627 13.2522 1.64378e-19)
(45.5293 13.7003 -4.99768e-19)
(45.121 14.0424 -3.23506e-19)
(44.8398 14.3285 4.05748e-19)
(44.5768 14.6324 -4.10228e-19)
(44.1947 14.9253 0)
(43.881 15.0683 0)
(43.7482 15.2547 1.05128e-20)
(43.5975 15.4297 -2.22887e-19)
(43.4192 15.5676 2.47703e-19)
(43.3454 15.6969 4.04752e-19)
(43.3539 15.8444 -1.47876e-19)
(43.2815 15.9128 -3.2724e-19)
(43.1006 15.9704 -3.70489e-19)
(42.6539 15.8872 -2.2623e-19)
(41.4864 15.5549 -9.49023e-21)
(38.4917 14.4607 3.05848e-19)
(31.5355 11.7347 0)
(18.783 6.91525 1.9788e-19)
(6.66989 2.67977 2.22405e-19)
(0.860469 1.03085 2.49546e-19)
(-1.5097 0.536199 8.40726e-19)
(-2.20685 0.37678 -3.12133e-19)
(-1.86601 0.276357 0)
(-0.80836 0.118901 0)
(42.3461 -0.0207948 6.29315e-20)
(45.7271 -0.0670741 -8.81988e-19)
(45.8998 0.353861 5.12249e-19)
(46.0484 0.374506 -1.23054e-18)
(46.205 0.780282 -6.83556e-19)
(46.4504 0.990899 -8.64485e-22)
(46.7331 1.34427 2.75733e-20)
(47.0276 1.74093 9.11972e-19)
(47.3118 2.17909 7.36966e-20)
(47.5474 2.66411 8.84787e-20)
(47.7931 3.15737 -7.4635e-19)
(48.0456 3.72231 -1.13642e-19)
(48.2577 4.33847 -1.13244e-18)
(48.4508 4.98252 -1.29625e-18)
(48.6075 5.67194 1.7245e-19)
(48.7131 6.4003 -1.92179e-19)
(48.7657 7.15184 0)
(48.7558 7.92498 -1.04961e-18)
(48.695 8.69886 0)
(48.5652 9.47295 0)
(48.3701 10.229 0)
(48.0978 10.971 -3.34129e-19)
(47.8499 11.8206 1.03717e-18)
(47.4882 12.6418 -7.00242e-19)
(46.9596 13.2149 0)
(46.4853 13.6047 -2.00226e-19)
(46.1157 13.9989 -7.20506e-19)
(45.761 14.4131 -9.59016e-19)
(45.3053 14.7897 -6.12287e-19)
(44.8031 15.0385 3.6894e-19)
(44.4856 15.1563 -4.46993e-19)
(44.2767 15.3732 2.36722e-19)
(43.9746 15.5078 4.84416e-19)
(43.717 15.5966 0)
(43.6146 15.6825 2.7982e-19)
(43.5464 15.7945 -5.52066e-19)
(43.4117 15.8282 -5.14167e-21)
(43.2475 15.8447 3.10804e-19)
(42.8459 15.7822 1.91421e-19)
(41.77 15.4581 0)
(39.0512 14.5004 2.87881e-19)
(32.6175 12.0503 -3.23841e-19)
(19.8038 7.33797 7.32636e-19)
(8.14066 3.35525 0)
(1.77393 1.54002 -8.97438e-19)
(-0.941916 1.03091 2.4884e-19)
(-2.05103 0.899073 -2.7303e-19)
(-2.32456 0.819425 -3.06572e-19)
(-1.86445 0.573062 6.8991e-19)
(-0.759718 0.209422 9.50432e-22)
(42.225 -0.0828095 -8.485e-19)
(45.8803 -0.219118 1.01044e-18)
(46.1106 0.0623421 -1.14594e-18)
(46.3051 0.0262082 2.53936e-18)
(46.5527 0.392298 -1.55429e-18)
(46.8566 0.5593 1.06011e-19)
(47.1498 0.944321 -1.07828e-18)
(47.4801 1.30529 0)
(47.8151 1.72636 -1.38809e-18)
(48.2198 2.2293 1.71962e-18)
(48.5955 2.82808 4.59782e-21)
(48.9281 3.46463 -1.27804e-19)
(49.2399 4.14924 1.12863e-18)
(49.5015 4.89957 -1.76008e-19)
(49.7115 5.69607 1.4825e-18)
(49.8691 6.52949 2.21469e-19)
(49.9273 7.39133 0)
(49.9112 8.26106 1.04486e-18)
(49.8135 9.14615 2.71017e-18)
(49.6368 10.0143 0)
(49.3772 10.855 0)
(49.0467 11.6285 0)
(48.6046 12.2433 -1.47823e-18)
(48.1252 12.7224 -2.48502e-18)