/*--------------------------------*- C++ -*----------------------------------*\
| =========                 |                                                 |
| \\      /  F ield         | OpenFOAM: The Open Source CFD Toolbox           |
|  \\    /   O peration     | Version:  v1912                                 |
|   \\  /    A nd           | Website:  www.openfoam.com                      |
|    \\/     M anipulation  |                                                 |
\*---------------------------------------------------------------------------*/
FoamFile
{
    version     2.0;
    format      ascii;
    class       volScalarField;
    location    "0.3";
    object      p;
}
// * * * * * * * * * * * * * * * * * * * * * * * * * * * * * * * * * * * * * //

dimensions      [0 2 -2 0 0 0 0];


internalField   nonuniform List<scalar> 
6600
(
66.0781
61.3897
59.0769
57.5807
56.6577
56.0906
55.5299
55.0375
54.739
54.6268
54.6575
54.8404
55.1296
55.4358
55.7753
56.1674
56.611
57.1363
57.5503
57.8258
58.5886
59.3344
59.7093
59.8566
60.0026
60.0944
59.9894
59.5115
58.6864
57.4312
55.5807
52.9546
49.3627
44.5868
38.3735
30.4255
20.3806
7.80582
-7.74376
-26.7702
-49.8146
-77.4965
-110.344
-149.483
-195.467
-249.181
-310.909
-381.051
-462.824
-551.194
62.8981
57.7591
55.9813
54.1559
52.7676
51.7496
50.8465
50.0656
49.451
48.9759
48.6197
48.3603
48.2224
48.0793
47.9353
47.7866
47.6113
47.4591
47.2595
46.7304
46.2982
45.998
45.4644
44.551
43.3944
42.0561
40.4238
38.3312
35.716
32.5016
28.5331
23.6045
17.5027
9.99672
0.789908
-10.4267
-23.994
-40.3782
-60.0323
-83.4629
-111.279
-144.149
-182.388
-227.362
-279.495
-339.796
-408.339
-485.09
-571.674
-663.466
58.2625
52.7892
51.6248
49.5441
47.9165
46.57
45.3421
44.2713
43.3667
42.5198
41.7327
40.9996
40.3695
39.7543
39.0874
38.3513
37.5
36.5765
35.599
34.4247
33.0128
31.5689
29.8783
27.8216
25.3896
22.5604
19.2983
15.4879
10.9612
5.59387
-0.750062
-8.23253
-17.0762
-27.533
-39.9265
-54.6059
-71.8903
-92.3113
-116.257
-144.282
-176.956
-214.943
-258.745
-309.252
-367.04
-433.079
-507.502
-589.356
-677.816
-767.88
52.7234
46.9424
46.2955
43.7801
42.0675
40.5089
38.9985
37.6443
36.4076
35.2179
34.0691
32.9271
31.7202
30.6242
29.3669
27.9959
26.4519
24.767
23.0217
21.1119
18.749
16.0464
13.0294
9.62677
5.78922
1.45142
-3.52628
-9.24819
-15.837
-23.441
-32.2436
-42.4289
-54.1971
-67.8013
-83.5583
-101.845
-123.034
-147.566
-175.874
-208.449
-245.891
-288.809
-337.716
-393.14
-455.72
-526.389
-605.143
-690.113
-778.739
-864.709
46.493
40.3298
40.0081
37.0626
35.354
33.632
31.9198
30.317
28.8274
27.3204
25.7959
24.2692
22.6251
20.9258
19.0622
17.028
14.7891
12.3029
9.57701
6.5717
3.24594
-0.521796
-4.93588
-9.83078
-15.2546
-21.3279
-28.1588
-35.8862
-44.675
-54.6564
-66.0003
-78.9422
-93.7008
-110.522
-129.707
-151.624
-176.682
-205.251
-237.759
-274.699
-316.529
-363.806
-416.985
-476.436
-542.634
-616.383
-697.667
-784.288
-871.954
-952.37
39.5999
33.1891
32.9396
29.5576
27.8547
25.9754
24.0996
22.2791
20.4797
18.7129
16.8881
14.9527
12.8873
10.6196
8.11617
5.38105
2.36201
-1.0156
-4.72388
-8.83362
-13.509
-18.6518
-24.3717
-30.8301
-37.9687
-45.8484
-54.6564
-64.5248
-75.5672
-87.9394
-101.851
-117.544
-135.271
-155.287
-177.87
-203.342
-232.047
-264.372
-300.689
-341.409
-386.996
-437.851
-494.293
-556.578
-625.074
-700.431
-782.76
-869.793
-955.332
-1028.34
31.8084
25.3424
25.0401
21.4359
19.6597
17.6008
15.567
13.5554
11.5376
9.40357
7.15518
4.78221
2.20599
-0.658819
-3.8325
-7.35521
-11.2544
-15.6292
-20.5261
-25.8448
-31.6987
-38.2725
-45.5819
-53.6012
-62.4439
-72.2415
-83.0761
-95.0878
-108.452
-123.32
-139.848
-158.264
-178.831
-201.828
-227.539
-256.24
-288.236
-323.814
-363.352
-407.208
-455.68
-509.113
-567.738
-631.732
-701.296
-776.94
-858.89
-944.968
-1027.05
-1090.73
23.4074
16.9999
16.3328
12.6755
10.8581
8.60262
6.35918
4.09217
1.73022
-0.746983
-3.44655
-6.43241
-9.64167
-13.2189
-17.1695
-21.5619
-26.4247
-31.7992
-37.8054
-44.4959
-51.8101
-59.7655
-68.5097
-78.1841
-88.8441
-100.548
-113.442
-127.628
-143.249
-160.483
-179.536
-200.592
-223.858
-249.595
-278.084
-309.574
-344.306
-382.574
-424.624
-470.749
-521.222
-576.235
-635.945
-700.462
-769.997
-844.968
-925.363
-1008.82
-1086.19
-1139.02
13.6848
8.0559
7.04533
3.39777
1.52889
-0.915772
-3.3974
-5.95833
-8.69512
-11.7051
-14.9752
-18.5443
-22.508
-26.8812
-31.7225
-37.0734
-42.9986
-49.5773
-56.7425
-64.6071
-73.3368
-82.8879
-93.295
-104.643
-117.047
-130.654
-145.554
-161.865
-179.725
-199.282
-220.679
-244.127
-269.823
-297.97
-328.791
-362.529
-399.398
-439.593
-483.386
-530.954
-582.463
-638.101
-697.952
-762.07
-830.594
-903.947
-981.72
-1061.27
-1132.66
-1174.1
3.581
-1.62597
-2.69824
-6.20658
-8.2026
-10.8793
-13.6402
-16.6031
-19.7878
-23.2593
-27.114
-31.3903
-36.1358
-41.3686
-47.1615
-53.5378
-60.5199
-68.2356
-76.8027
-86.1009
-96.1997
-107.244
-119.231
-132.332
-146.609
-162.126
-178.994
-197.315
-217.212
-238.835
-262.368
-287.939
-315.708
-345.854
-378.57
-414.023
-452.405
-493.918
-538.686
-586.894
-638.647
-694.008
-753.063
-815.855
-882.466
-953.309
-1028.15
-1102.95
-1167.16
-1198.11
-7.7498
-11.8643
-12.8319
-16.261
-18.3534
-21.177
-24.1773
-27.456
-31.1068
-35.1612
-39.6478
-44.5977
-50.0777
-56.1656
-62.9296
-70.4152
-78.6175
-87.519
-97.2355
-107.872
-119.531
-132.183
-145.91
-160.76
-176.791
-194.11
-212.837
-233.074
-254.928
-278.489
-303.862
-331.22
-360.697
-392.421
-426.532
-463.19
-502.499
-544.612
-589.701
-637.794
-688.996
-743.382
-800.938
-861.712
-925.76
-993.264
-1064.07
-1133.72
-1191.03
-1213.91
-19.2921
-22.6283
-23.414
-26.5425
-28.736
-31.7767
-34.9721
-38.5278
-42.504
-46.9964
-52.0344
-57.6541
-63.9037
-70.816
-78.4504
-86.8909
-96.1849
-106.401
-117.572
-129.69
-142.772
-156.93
-172.228
-188.768
-206.599
-225.773
-246.326
-268.32
-291.849
-317.052
-344.039
-372.889
-403.705
-436.604
-471.693
-509.055
-548.813
-591.02
-635.743
-683.145
-733.214
-785.929
-841.28
-899.262
-960.061
-1023.8
-1089.56
-1153.6
-1205.18
-1222.53
-30.3851
-33.55
-34.1522
-36.9902
-39.0592
-42.1515
-45.5195
-49.3328
-53.6903
-58.6146
-64.1529
-70.3418
-77.2498
-84.971
-93.5162
-102.942
-113.293
-124.618
-136.976
-150.397
-164.996
-180.836
-197.813
-215.987
-235.413
-256.161
-278.304
-301.924
-327.093
-353.814
-382.141
-412.179
-444.026
-477.743
-513.407
-551.077
-590.765
-632.59
-676.591
-722.714
-771.055
-821.613
-874.302
-929.027
-985.763
-1044.77
-1104.12
-1160.32
-1203.45
-1218.7
-41.2214
-43.6241
-44.3903
-47.114
-49.1998
-52.3022
-55.7224
-59.6791
-64.2234
-69.4267
-75.3465
-82.0393
-89.5436
-97.917
-107.237
-117.562
-128.946
-141.418
-155.07
-169.921
-185.892
-202.948
-221.394
-241.175
-262.247
-284.656
-308.421
-333.527
-359.991
-387.928
-417.402
-448.43
-481.029
-515.265
-551.161
-588.775
-628.165
-669.225
-711.977
-756.527
-802.785
-850.657
-900.041
-950.907
-1003.12
-1056.31
-1107.46
-1152.12
-1181.15
-1193.89
-52.2163
-53.8959
-54.2502
-56.5769
-58.5872
-61.662
-65.1258
-69.2157
-73.9316
-79.3424
-85.5745
-92.6468
-100.588
-109.528
-119.504
-130.574
-142.818
-156.264
-170.94
-186.872
-204.191
-222.975
-242.904
-264.088
-286.622
-310.453
-335.574
-362.035
-389.875
-419.031
-449.473
-481.254
-514.435
-549.004
-584.97
-622.288
-660.956
-701.061
-742.471
-785.046
-828.853
-873.824
-919.638
-965.891
-1013.33
-1059.48
-1101.03
-1132.09
-1145.66
-1154.12
-62.2255
-63.3059
-63.6163
-65.7219
-67.4909
-70.3513
-73.6517
-77.6349
-82.3008
-87.7582
-94.0421
-101.311
-109.61
-118.951
-129.475
-141.225
-154.217
-168.556
-184.329
-201.537
-220.013
-239.798
-261.121
-283.865
-307.891
-333.244
-359.855
-387.656
-416.6
-446.718
-478.042
-510.515
-544.104
-578.824
-614.627
-651.541
-689.561
-728.529
-768.389
-809.069
-850.35
-892.111
-934.187
-976.351
-1017.94
-1056.69
-1089.69
-1112.16
-1119.57
-1122.77
-71.6961
-71.7819
-71.9647
-73.7355
-75.3508
-78.032
-81.1273
-84.8852
-89.4036
-94.7548
-101.006
-108.245
-116.614
-126.149
-136.907
-149.036
-162.604
-177.624
-194.162
-212.288
-232.064
-253.334
-276.021
-300.092
-325.55
-352.3
-380.272
-409.405
-439.651
-470.931
-503.137
-536.254
-570.261
-605.143
-640.885
-677.35
-714.504
-752.385
-790.793
-829.5
-868.422
-907.335
-945.895
-984.733
-1021.27
-1053.35
-1078.71
-1094.48
-1103.47
-1103.63
-80.434
-80.1205
-79.843
-81.0995
-82.4225
-84.7505
-87.4898
-90.8895
-95.0023
-99.9492
-105.788
-112.71
-120.973
-130.544
-141.468
-153.818
-167.784
-183.302
-200.622
-219.568
-240.198
-262.686
-286.744
-312.308
-339.359
-367.724
-397.236
-427.804
-459.301
-491.629
-524.76
-558.615
-593.134
-628.247
-663.856
-699.975
-736.55
-773.454
-810.59
-847.798
-884.797
-921.349
-957.709
-992.664
-1025.16
-1053.14
-1072.76
-1081.12
-1086.4
-1087.29
-87.961
-87.1816
-86.9816
-87.9076
-88.7332
-90.6332
-92.9029
-95.7835
-99.4245
-103.852
-109.19
-115.542
-123.079
-132.066
-142.678
-154.922
-168.996
-184.896
-202.655
-222.522
-244.184
-267.586
-292.953
-320.092
-348.726
-378.683
-409.81
-442.013
-475.156
-508.949
-543.272
-578.069
-613.191
-648.634
-684.468
-720.476
-756.533
-792.7
-828.84
-864.741
-900.451
-935.497
-969.674
-1002.14
-1031.19
-1053.78
-1067.54
-1074.72
-1075.21
-1076.79
-95.0075
-93.4025
-93.182
-93.8888
-94.5509
-95.9336
-97.6529
-99.9034
-102.73
-106.303
-110.774
-116.219
-122.828
-130.995
-140.97
-152.945
-166.745
-182.501
-200.109
-220.194
-242.84
-267.614
-294.444
-323.156
-353.573
-385.513
-418.738
-452.848
-487.574
-522.952
-558.723
-594.68
-630.817
-666.965
-703.001
-739.068
-775.017
-810.707
-846.258
-881.53
-916.203
-950.074
-982.394
-1012.1
-1038.19
-1056.78
-1064.17
-1068
-1068.32
-1069.31
-101.438
-99.8703
-99.2745
-99.5417
-99.8274
-100.882
-102.006
-103.564
-105.592
-108.174
-111.511
-115.833
-121.304
-128.221
-136.861
-147.645
-160.708
-176.061
-193.775
-213.949
-236.912
-262.657
-290.808
-321.141
-353.471
-387.442
-422.754
-459.229
-496.519
-534.022
-571.584
-609.138
-646.464
-683.516
-720.312
-756.769
-792.833
-828.445
-863.594
-898.327
-932.251
-964.901
-995.128
-1022.42
-1043.7
-1056.1
-1062.98
-1062.81
-1063.38
-1063.72
-106.051
-104.875
-105.037
-105.305
-105.277
-105.869
-106.499
-107.297
-108.319
-109.702
-111.627
-114.411
-118.296
-123.516
-130.438
-139.476
-151.058
-165.552
-183.06
-203.338
-226.478
-252.731
-281.955
-313.963
-348.46
-385.005
-423.051
-461.968
-501.641
-541.809
-581.861
-621.412
-660.475
-698.868
-736.549
-773.633
-810.068
-845.628
-880.698
-914.987
-948.09
-979.37
-1007.6
-1030.46
-1046.85
-1054.77
-1057.86
-1058.44
-1058.99
-1059.2
-109.71
-108.651
-109.8
-110.357
-110.61
-111.101
-111.287
-111.498
-111.65
-111.85
-112.336
-113.318
-115.165
-118.332
-123.225
-130.188
-139.752
-152.428
-168.515
-188.167
-211.269
-237.89
-268.061
-301.591
-338.064
-376.965
-417.947
-460.589
-503.702
-546.776
-589.651
-631.913
-673.154
-713.311
-752.253
-790.146
-827.255
-863.372
-898.256
-931.692
-963.891
-993.514
-1019.33
-1038.45
-1047.41
-1053.04
-1054.06
-1054.94
-1055.5
-1055.75
-112.338
-112.881
-114.152
-115.049
-115.84
-116.627
-116.785
-116.581
-115.974
-115.04
-113.963
-112.991
-112.522
-113.105
-115.311
-119.612
-126.661
-137.06
-151.232
-169.434
-191.834
-218.416
-249.126
-283.939
-322.541
-364.435
-408.596
-454.326
-501.229
-548.523
-595.286
-640.849
-684.79
-727.063
-767.961
-807.128
-844.474
-880.721
-915.723
-949.083
-979.31
-1007.73
-1030.35
-1043.05
-1050.09
-1051.25
-1052.1
-1052.65
-1052.97
-1053.17
-114.218
-115.926
-117.657
-119.314
-120.865
-122.246
-122.867
-122.762
-121.809
-120.044
-117.621
-114.773
-111.918
-109.589
-108.548
-109.564
-113.351
-120.584
-131.93
-147.801
-168.638
-194.559
-225.425
-261.115
-301.272
-345.647
-393.552
-443.88
-495.413
-547.215
-598.278
-647.927
-695.695
-741.067
-783.619
-824.132
-862.942
-899.795
-934.265
-966.394
-996.289
-1020.66
-1038
-1047.02
-1050.12
-1050.74
-1050.99
-1050.91
-1050.85
-1050.84
-112.802
-116.012
-119.073
-122.375
-125.311
-128.009
-129.551
-130.11
-129.309
-127.081
-123.533
-118.99
-113.761
-108.327
-103.565
-100.545
-100.226
-103.521
-111.268
-124.14
-142.552
-166.902
-197.221
-233.341
-275.097
-322.014
-373.363
-427.94
-484.657
-541.989
-598.845
-653.906
-706.007
-754.68
-800.264
-842.849
-882.597
-918.715
-951.466
-983.598
-1011.59
-1032.41
-1042.67
-1048.59
-1049.73
-1049.95
-1049.61
-1049.05
-1048.62
-1048.31
-109.133
-114.364
-118.689
-123.742
-128.32
-132.748
-135.942
-137.944
-138.035
-136.132
-132.344
-126.617
-119.394
-111.124
-102.62
-95.151
-89.9123
-88.0312
-90.7107
-99.3323
-114.338
-136.109
-164.944
-200.644
-243.039
-291.969
-347.044
-406.736
-469.385
-533.507
-597.087
-658.235
-716.021
-769.735
-818.7
-863.157
-903.655
-939.731
-972.231
-1001.68
-1025.86
-1038.61
-1046.51
-1048.07
-1048.77
-1048.52
-1047.76
-1046.87
-1046.17
-1045.61
-105.852
-110.738
-116.6
-123.315
-129.623
-136.092
-141.41
-145.544
-147.587
-147.02
-143.697
-137.542
-128.714
-117.836
-105.507
-93.0865
-82.3728
-74.829
-71.9329
-74.857
-85.1134
-103.047
-129.228
-163.832
-206.632
-257.187
-315.198
-379.95
-449.098
-520.724
-592.531
-662.03
-726.821
-786.013
-839.02
-885.834
-927.665
-964.325
-996.106
-1021.79
-1036.56
-1044.71
-1046.63
-1047.29
-1047.38
-1046.88
-1045.95
-1044.83
-1043.95
-1043.37
-106.127
-105.728
-113.29
-120.93
-128.596
-136.984
-144.594
-151.405
-155.866
-157.955
-156.655
-151.47
-142.38
-130.009
-114.704
-97.8906
-80.8086
-65.8916
-56.055
-52.598
-56.8984
-69.7391
-91.7122
-123.244
-165.143
-217.074
-278.27
-348.094
-424.538
-504.756
-586.749
-666.08
-738.756
-804.42
-862.483
-911.386
-954.463
-995.312
-1025.33
-1041.92
-1047.99
-1048.55
-1047.26
-1047.06
-1046.67
-1045.86
-1044.55
-1043.08
-1042.05
-1041.61
-127.01
-104.3
-110.206
-117.488
-126.297
-136.373
-145.486
-154.737
-161.72
-168.053
-170.398
-167.777
-159.514
-145.921
-127.939
-106.836
-84.1882
-62.6482
-44.7373
-33.2777
-29.7126
-36.5062
-53.8911
-82.6423
-123.174
-175.421
-238.821
-313.056
-396.845
-486.993
-580.364
-671.534
-754.394
-828.72
-890.606
-940.257
-982.341
-1020.42
-1050.64
-1057.2
-1056.91
-1052.22
-1049.3
-1048.19
-1046.98
-1045.58
-1043.57
-1041.32
-1039.9
-1039.8
124.39
119.881
117.75
116.495
116.056
116.09
116.35
116.966
118.079
119.643
121.672
124.175
127.129
130.542
134.417
138.732
143.519
148.719
154.36
160.451
166.944
173.747
180.833
188.072
195.715
203.605
211.457
219.15
226.72
234.116
241.169
247.74
253.597
258.529
262.36
264.783
265.467
264.1
260.339
253.758
243.873
230.164
212.071
188.945
160.292
125.268
83.5873
34.5864
-24.4109
-82.6912
121.483
116.911
115.394
114.086
113.418
113.141
113.225
113.707
114.681
116.124
118.008
120.336
123.096
126.295
129.933
133.998
138.513
143.304
148.574
154.242
160.268
166.541
173.221
179.837
186.326
193.057
199.934
206.802
213.269
219.299
224.851
229.756
233.807
236.751
238.516
238.633
236.8
232.722
226.052
216.349
203.113
185.799
163.873
136.684
103.724
64.1294
17.8489
-35.4318
-97.3487
-156.876
117.607
112.855
112.098
110.76
109.997
109.62
109.612
110.069
110.995
112.369
114.186
116.437
119.107
122.184
125.671
129.559
133.822
138.423
143.391
148.669
154.23
160.016
165.981
171.974
177.921
183.816
189.559
195.077
200.285
204.968
208.942
212.063
214.145
214.99
214.403
212.008
207.482
200.51
190.747
177.763
161.052
140.113
114.468
83.485
46.594
3.22202
-46.7556
-102.907
-164.985
-222.112
112.936
108.221
107.986
106.484
105.697
105.304
105.314
105.792
106.735
108.103
109.898
112.125
114.747
117.757
121.146
124.889
128.962
133.35
138.027
142.939
148.036
153.292
158.705
164.038
169.124
174.048
178.752
183.084
186.867
190.01
192.339
193.634
193.719
192.378
189.361
184.368
177.08
167.183
154.314
138.069
118.015
93.6869
64.6864
30.4924
-9.38455
-55.3974
-107.604
-164.752
-225.339
-277.958
107.729
102.779
102.949
101.269
100.565
100.19
100.211
100.73
101.687
103.046
104.827
107.007
109.563
112.495
115.774
119.364
123.236
127.361
131.707
136.22
140.821
145.445
150.06
154.693
159.081
163.113
166.663
169.68
172.088
173.672
174.269
173.713
171.776
168.239
162.856
155.331
145.371
132.669
116.9
97.7134
74.748
47.6398
16.0481
-20.4151
-62.099
-109.328
-162.099
-218.91
-276.845
-323.315
102.326
96.7926
97.0776
95.082
94.4625
94.1502
94.2146
94.706
95.6469
96.9912
98.7248
100.824
103.276
106.075
109.178
112.546
116.157
119.962
123.911
127.958
132.024
136.044
140.006
143.742
147.128
150.111
152.61
154.403
155.362
155.402
154.323
151.916
148.013
142.368
134.731
124.85
112.463
97.314
79.1105
57.5569
32.3891
3.32758
-29.8664
-67.4593
-109.706
-156.836
-208.784
-263.939
-317.955
-356.926
95.7121
90.2961
90.2664
88.0572
87.4854
87.1613
87.2458
87.7435
88.6139
89.8671
91.4924
93.4549
95.747
98.3391
101.19
104.269
107.538
110.943
114.427
117.94
121.404
124.706
127.797
130.732
133.285
135.244
136.493
136.965
136.57
135.098
132.388
128.254
122.472
114.863
105.228
93.3343
78.9537
61.858
41.8382
18.6728
-7.83864
-37.8673
-71.5688
-109.142
-150.814
-196.819
-246.81
-299.029
-348.268
-378.718
88.2499
82.7192
82.4345
80.1348
79.5561
79.2262
79.246
79.6501
80.4579
81.6069
83.0806
84.8562
86.9167
89.2292
91.758
94.4742
97.3317
100.269
103.231
106.165
109.002
111.676
114.035
115.913
117.329
118.202
118.437
117.743
115.948
112.999
108.744
103.002
95.6084
86.3581
75.0682
61.5719
45.7056
27.3023
6.18613
-17.8004
-44.7729
-74.8416
-108.089
-144.624
-184.656
-228.571
-275.949
-324.372
-368.047
-390.127
78.8654
73.897
73.5246
71.1645
70.6359
70.1931
70.1365
70.481
71.1624
72.1392
73.4086
74.9381
76.7116
78.6968
80.8608
83.1622
85.5524
87.9709
90.37
92.6797
94.8194
96.6895
98.236
99.3487
99.9055
99.7331
98.7001
96.7616
93.7891
89.5661
83.9567
76.8389
68.0615
57.4991
45.0184
30.4722
13.7184
-5.37208
-26.8925
-50.9283
-77.5582
-106.828
-138.77
-173.46
-211.036
-251.803
-295.74
-340.188
-378.569
-393.943
68.1196
63.693
63.3477
61.0677
60.5604
60.0821
59.9043
60.1072
60.6263
61.4085
62.4118
63.6419
65.0899
66.7063
68.4598
70.3105
72.2098
74.107
75.9393
77.6389
79.129
80.3486
81.1542
81.3711
80.9051
79.7493
77.8025
74.8554
70.7231
65.3663
58.6693
50.4922
40.7351
29.2854
16.0313
0.883956
-16.2253
-35.3725
-56.6306
-80.0505
-105.646
-133.431
-163.405
-195.548
-229.956
-267.011
-306.394
-346.166
-380.208
-392.877
56.1962
52.0521
51.8336
49.819
49.3478
48.7312
48.4748
48.508
48.7915
49.3293
50.0563
50.951
51.9955
53.1987
54.5352
55.9372
57.3488
58.7259
60.0056
61.1189
61.9772
62.4772
62.5541
62.1273
61.0491
59.1327
56.1993
52.2628
47.3069
41.1344
33.6128
24.6852
14.2722
2.3145
-11.2401
-26.4613
-43.4059
-62.1194
-82.612
-104.858
-128.855
-154.58
-181.991
-211.051
-241.702
-274.29
-307.836
-340.696
-367.641
-380.331
42.9574
39.3845
39.2635
37.3125
36.8722
36.1732
35.7367
35.5497
35.5753
35.7933
36.2428
36.7859
37.4474
38.2461
39.124
40.0622
41.0264
41.9385
42.7392
43.3558
43.71
43.7253
43.2671
42.1629
40.3209
37.719
34.31
29.8525
24.1852
17.3636
9.34352
0.0172265
-10.6664
-22.7516
-36.2739
-51.2394
-67.6344
-85.4447
-104.682
-125.332
-147.312
-170.55
-194.954
-220.36
-247.012
-274.289
-300.741
-323.272
-337.52
-348.264
28.6583
25.5077
25.5619
23.8164
23.3334
22.4124
21.8298
21.4486
21.1787
21.0292
21.0841
21.3112
21.5431
21.8699
22.3191
22.8409
23.3775
23.8714
24.2565
24.4685
24.4023
23.9461
23.0182
21.5475
19.4669
16.5698
12.6292
7.69197
1.77487
-5.29396
-13.5867
-23.0797
-33.7869
-45.7112
-58.8468
-73.1876
-88.6998
-105.349
-123.088
-141.846
-161.532
-182.006
-203.046
-224.579
-246.375
-267.612
-286.742
-300.489
-305.345
-310.458
13.4274
10.8111
10.9247
9.24993
8.78091
7.76034
6.90667
6.18459
5.56958
5.03134
4.5439
4.33431
4.29276
4.19954
4.23183
4.35292
4.5266
4.69477
4.79126
4.74001
4.44675
3.83054
2.75125
1.03657
-1.44321
-4.62312
-8.5288
-13.428
-19.5024
-26.6758
-34.9267
-44.2986
-54.777
-66.3379
-78.9317
-92.4986
-106.972
-122.254
-138.275
-154.992
-172.28
-189.97
-207.804
-225.487
-242.462
-257.911
-270.352
-278.331
-283.978
-285.935
-2.73561
-4.52436
-4.30026
-5.85091
-6.46641
-7.7665
-8.86288
-9.96209
-11.0044
-11.9536
-12.8492
-13.6475
-14.1192
-14.5846
-14.9456
-15.1818
-15.3368
-15.4398
-15.5461
-15.7456
-16.126
-16.8325
-17.9652
-19.59
-21.7413
-24.6793
-28.6536
-33.5863
-39.4242
-46.3383
-54.4025
-63.5331
-73.6628
-84.7292
-96.6682
-109.379
-122.738
-136.644
-151.005
-165.743
-180.77
-195.903
-210.748
-224.937
-237.981
-249.133
-257.224
-261.347
-265.901
-267.447
-19.093
-19.9054
-19.7932
-21.3707
-22.0973
-23.6978
-25.1901
-26.7426
-28.3136
-29.8525
-31.2909
-32.6504
-33.7201
-34.4594
-35.2156
-35.7519
-36.1165
-36.3495
-36.5167
-36.6868
-36.9531
-37.4071
-38.1969
-39.5501
-41.6248
-44.3488
-47.7375
-52.0809
-57.617
-64.2684
-71.9544
-80.6837
-90.3903
-100.965
-112.276
-124.19
-136.576
-149.285
-162.169
-175.17
-188.229
-200.995
-213.162
-224.724
-234.904
-242.539
-246.881
-251.064
-252.706
-254.334
-35.3439
-35.2146
-35.0555
-36.6167
-37.7193
-39.7439
-41.7104
-43.7885
-45.9618
-48.1262
-50.1717
-52.1357
-53.9157
-55.1646
-56.2904
-57.1581
-57.7534
-58.0893
-58.2318
-58.2405
-58.229
-58.3322
-58.7151
-59.4543
-60.6236
-62.4774
-65.3649
-69.2816
-74.1507
-80.1604
-87.4175
-95.7697
-105.079
-115.225
-126.069
-137.437
-149.1
-160.858
-172.623
-184.353
-195.706
-206.241
-216.349
-225.67
-233.355
-238.532
-241.304
-243.401
-244.917
-245.852
-50.3061
-49.5639
-49.6728
-51.4671
-52.8069
-55.4042
-57.9982
-60.8048
-63.7737
-66.7506
-69.6006
-72.2703
-74.7849
-76.8616
-78.3768
-79.522
-80.2518
-80.6016
-80.5963
-80.3001
-79.794
-79.2008
-78.7086
-78.6093
-79.1395
-80.301
-82.0618
-84.7595
-88.7853
-94.1609
-100.803
-108.722
-117.756
-127.681
-138.284
-149.328
-160.615
-171.97
-183.213
-193.953
-203.6
-212.44
-220.693
-227.631
-232.673
-235.849
-238.591
-239.47
-240.619
-241.008
-63.7713
-62.1873
-62.8969
-65.0195
-67.0079
-70.3253
-73.6658
-77.3798
-81.2941
-85.2393
-89.0521
-92.559
-95.8476
-98.7473
-100.927
-102.625
-103.672
-104.086
-103.927
-103.256
-102.144
-100.769
-99.3513
-98.1238
-97.1753
-96.7405
-97.3058
-99.0171
-101.836
-106.083
-112.011
-119.48
-128.3
-138.205
-148.881
-160.093
-171.578
-183.033
-194.067
-204.014
-212.689
-220.443
-226.396
-230.192
-232.333
-234.37
-235.889
-237.156
-238.109
-238.31
-74.7239
-73.2688
-74.5711
-77.1022
-79.8089
-84.0323
-88.2692
-93.0727
-98.1555
-103.306
-108.404
-113.209
-117.517
-121.351
-124.376
-126.697
-128.107
-128.633
-128.292
-127.161
-125.334
-122.923
-120.128
-117.347
-115.021
-113.346
-112.238
-111.993
-113.22
-116.181
-121.003
-127.852
-136.543
-146.672
-157.88
-169.727
-181.888
-194.039
-205.349
-215.161
-223.809
-230.134
-233.027
-233.417
-233.272
-233.635
-234.875
-236.427
-237.486
-237.743
-82.8713
-82.263
-83.9497
-87.1839
-90.7377
-96.0094
-101.354
-107.471
-113.907
-120.479
-126.968
-133.205
-139.031
-144.179
-148.289
-151.459
-153.622
-154.512
-154.174
-152.679
-150.098
-146.594
-142.458
-138.058
-133.62
-129.419
-126.131
-124.125
-123.416
-124.446
-127.771
-133.635
-142.015
-152.565
-164.605
-177.731
-191.639
-204.998
-216.804
-227.683
-236.388
-240.644
-240.897
-238.986
-236.965
-236.161
-236.475
-237.539
-238.451
-238.974
-87.0049
-88.0655
-90.5298
-94.7643
-99.3257
-105.992
-112.42
-119.935
-127.968
-136.198
-144.56
-152.744
-160.31
-167.225
-173.155
-177.396
-180.451
-181.886
-181.719
-179.931
-176.651
-171.986
-166.138
-159.488
-152.833
-146.637
-140.867
-135.927
-132.505
-131.173
-132.376
-136.595
-144.196
-154.926
-168.351
-183.996
-200.042
-214.677
-228.511
-240.771
-248.657
-251.288
-250.275
-247.357
-244.577
-242.276
-240.509
-239.769
-239.726
-240.248
-87.6688
-90.9661
-94.3385
-99.6111
-105.086
-113.548
-121.018
-130.182
-139.893
-150.024
-160.292
-170.559
-180.46
-189.515
-197.533
-203.769
-208.171
-210.848
-211.321
-209.618
-205.879
-200.163
-192.739
-184.062
-174.628
-164.922
-155.769
-147.794
-141.314
-136.764
-134.996
-136.717
-142.445
-153.009
-167.892
-186.079
-205.044
-223.49
-239.924
-252.019
-258.73
-260.942
-259.763
-256.829
-253.179
-249.061
-244.988
-241.659
-239.835
-239.816
-85.5894
-90.8101
-95.0685
-101.572
-108.584
-117.668
-126.98
-137.848
-149.162
-161.451
-174.222
-186.9
-199.278
-211.029
-221.732
-230.774
-237.324
-241.592
-243.087
-241.886
-237.936
-231.348
-222.279
-211.086
-198.572
-185.775
-173.157
-160.974
-150.142
-141.595
-135.981
-134.019
-136.82
-145.393
-160.552
-181.676
-205.782
-229.993
-248.966
-259.911
-264.933
-266.793
-266.446
-263.52
-258.499
-252.516
-245.913
-239.698
-236.036
-235.044
-81.2535
-88.0107
-92.891
-100.608
-108.689
-118.595
-129.711
-142.377
-155.066
-169.828
-185.117
-200.767
-216.195
-230.938
-244.727
-257.013
-266.689
-273.202
-276.851
-277.007
-273.495
-266.53
-256.204
-242.897
-227.319
-210.301
-192.806
-175.877
-160.452
-146.877
-136.014
-129.189
-127.435
-132.237
-146.254
-169.088
-198.514
-230.687
-254.122
-263.741
-266.373
-266.35
-266.292
-263.626
-258.25
-250.951
-242.048
-233.586
-227.843
-225.137
-74.8198
-83.0933
-88.1514
-96.8658
-105.822
-116.765
-129.122
-143.159
-158.309
-175.064
-192.875
-211.341
-230.198
-248.746
-266.305
-282.387
-296.055
-306.288
-312.794
-314.846
-312.469
-305.709
-294.572
-279.25
-260.301
-239.284
-217.272
-194.861
-173.219
-153.58
-136.945
-123.805
-115.387
-114.299
-124.261
-147.09
-181.279
-219.933
-250.18
-264.381
-267.194
-270.059
-271.608
-269.527
-263.204
-253.262
-241.268
-229.875
-221.583
-216.755
-68.0995
-76.3161
-81.8415
-90.8368
-100.215
-111.803
-125.017
-140.317
-157.358
-176.214
-196.802
-218.52
-240.849
-263.31
-285.219
-305.893
-324.402
-339.283
-349.471
-354.785
-354.85
-349.287
-338.259
-321.889
-300.546
-275.167
-247.035
-218.013
-189.761
-163.512
-139.755
-119.159
-102.579
-93.3574
-96.4725
-116.979
-151.745
-192.444
-231.944
-258.76
-275.95
-288.234
-293.982
-292.707
-285.16
-272.032
-255.746
-240.046
-229.111
-222.802
-61.5577
-68.5744
-74.3775
-83.4654
-92.9053
-104.817
-118.545
-134.668
-153.03
-173.841
-196.719
-221.517
-247.534
-274.205
-300.887
-326.816
-350.985
-371.801
-387.375
-397.143
-400.377
-396.877
-386.988
-370.326
-346.647
-317.144
-284.135
-248.712
-212.39
-177.684
-146.027
-117.666
-92.3019
-72.3745
-65.7608
-79.3276
-112.894
-152.775
-198.431
-247.401
-286.837
-315.099
-328.776
-329.748
-321.603
-306.971
-287.671
-267.609
-253.193
-245.625
-60.5003
-59.9359
-66.689
-75.0806
-84.4267
-96.4242
-110.138
-126.54
-145.478
-167.737
-192.924
-220.36
-249.761
-280.483
-312.122
-344.066
-374.832
-402.188
-424.581
-440.085
-448.04
-448.33
-440.968
-425.586
-401.408
-368.982
-329.679
-286.325
-241.279
-197.746
-158.029
-120.977
-86.0442
-55.9995
-42.1613
-46.9355
-79.5708
-122.808
-171.67
-230.351
-288.118
-331.66
-354.645
-362.271
-359.47
-346.665
-326.951
-305.828
-290.596
-283.135
-77.3829
-54.1789
-59.5608
-66.5661
-75.8681
-87.6627
-101.208
-117.565
-136.91
-159.734
-186.327
-216.027
-248.461
-283.103
-319.234
-357.295
-395.003
-429.813
-459.251
-481.43
-495.936
-502.759
-500.054
-486.774
-462.411
-426.444
-381.27
-332.539
-279.496
-225.391
-174.738
-125.813
-85.6193
-53.9055
-32.9197
-34.2397
-50.824
-93.0202
-151.791
-215.387
-285.782
-334.962
-362.088
-375.828
-381.645
-375.95
-360.926
-341.666
-327.362
-321.068
-60.1682
-43.9048
-50.5499
-58.3634
-67.8063
-79.3722
-93.1074
-109.501
-129.207
-152.631
-179.927
-211.998
-248.745
-288.959
-331.272
-376.168
-421.725
-465.836
-505.227
-536.302
-557.462
-568.398
-567.436
-554.554
-528.901
-490.806
-442.06
-383.344
-321.654
-255.358
-196.544
-147.129
-95.9473
-60.5362
-44.0916
-50.2518
-75.4953
-116.177
-171.342
-231.598
-294.954
-341.845
-367.898
-380.65
-391.589
-390.108
-380.36
-365.354
-355.293
-351.582
-46.8771
-43.6653
-47.6902
-54.9304
-65.0001
-77.207
-92.1811
-110.648
-133.022
-159.803
-191.148
-228.764
-271.186
-317.286
-367.802
-421.967
-478.12
-529.992
-574.424
-610.56
-634.116
-646.292
-645.007
-626.911
-590.182
-538.561
-474.511
-399.019
-328.049
-259.548
-192.857
-134.687
-92.535
-67.477
-65.4904
-81.5128
-112.351
-155.013
-206.162
-261.87
-316.56
-353.345
-372.531
-384.301
-391.619
-390.952
-384.53
-376.277
-372.531
-371.799
-38.9808
-44.0628
-48.867
-56.5429
-67.8357
-81.784
-98.9101
-120.236
-147.686
-181.782
-220.306
-263.395
-313.173
-369.708
-432.595
-498.191
-560.575
-618.324
-667.008
-705.792
-733.551
-745.836
-735.032
-700.018
-642.906
-569.16
-490.286
-405.113
-319.701
-245.744
-185.187
-139.723
-110.278
-98.5694
-103.789
-124.039
-155.368
-195.109
-238.947
-283.888
-324.846
-353.417
-368.886
-377.094
-381.982
-382.678
-380.014
-380.097
-382.756
-385.592
-34.3537
-41.4493
-48.4774
-58.1333
-71.0022
-87.8641
-109.336
-136.301
-169.51
-208.646
-255.185
-309.784
-373.041
-444.044
-518.986
-594.512
-666.857
-732.686
-791.59
-836.479
-863.644
-863.815
-831.654
-770.461
-691.236
-594.549
-496.908
-407.06
-326.156
-257.612
-203.584
-165.865
-143.581
-138.669
-148.123
-169.282
-198.639
-233.351
-269.989
-304.771
-334.006
-354.461
-365.201
-370.3
-372.896
-375.573
-379.478
-386.046
-391.689
-396.208
-28.826
-36.4831
-45.7332
-57.7334
-72.4309
-92.1095
-118.371
-151.252
-192.193
-241.482
-298.983
-365.45
-443.695
-530.904
-621.719
-714.721
-807.873
-888.911
-954.422
-999.771
-1014.74
-989.12
-926.86
-832.508
-729.717
-624.515
-522.142
-430.575
-351.164
-287.219
-237.71
-204.754
-188.213
-186.024
-196.3
-215.235
-240.386
-268.316
-296.455
-321.891
-342.283
-356.625
-364.516
-367.093
-370.903
-377.312
-386.808
-395.936
-402.124
-405.528
-21.3744
-28.8815
-39.1831
-53.1589
-71.5641
-96.0197
-127.71
-167.908
-216.777
-275.73
-347.724
-432.073
-527.311
-636.062
-757.557
-880.827
-990.972
-1082.41
-1148.93
-1182.25
-1170.53
-1110.51
-1016.78
-906.744
-788.148
-674.422
-565.647
-471.603
-393.139
-330.629
-284.995
-254.3
-239.505
-237.361
-245.339
-260.418
-280.084
-301.446
-322.161
-340.378
-355.091
-365.844
-373.149
-378.555
-382.658
-389.448
-399.332
-408.359
-413.92
-415.936
-13.6008
-21.7252
-32.8014
-48.3306
-69.4842
-97.5126
-134.009
-182.098
-243.628
-319.022
-406.152
-507.866
-633.755
-785.23
-944.923
-1091.8
-1212.08
-1306.08
-1361.32
-1371.79
-1336.64
-1255.9
-1139.36
-1008.45
-872.961
-744.304
-628.03
-527.615
-448.377
-386.398
-341.398
-311.444
-295.346
-290.695
-294.709
-305.042
-318.915
-334.184
-348.927
-361.937
-372.726
-381.472
-388.616
-394.814
-401.098
-408.778
-418.031
-424.959
-429.421
-431.107
-2.14122
-10.043
-21.8807
-39.6877
-64.8798
-98.5338
-143.797
-202.804
-274.68
-363.084