/*--------------------------------*- C++ -*----------------------------------*\
| =========                 |                                                 |
| \\      /  F ield         | OpenFOAM: The Open Source CFD Toolbox           |
|  \\    /   O peration     | Version:  v1912                                 |
|   \\  /    A nd           | Website:  www.openfoam.com                      |
|    \\/     M anipulation  |                                                 |
\*---------------------------------------------------------------------------*/
FoamFile
{
    version     2.0;
    format      ascii;
    class       surfaceScalarField;
    location    "0.3";
    object      phi;
}
// * * * * * * * * * * * * * * * * * * * * * * * * * * * * * * * * * * * * * //

dimensions      [0 3 -1 0 0 0 0];
oriented        oriented;


internalField   nonuniform List<scalar> 
13060
(
0.00581131
0.98837
-0.994181
0.00752265
0.946184
-0.947896
0.00860222
0.900777
-0.901857
0.00945362
0.857545
-0.858396
0.00998555
0.817066
-0.817598
0.0101872
0.778912
-0.779114
0.0103889
0.742429
-0.742631
0.0107144
0.707264
-0.70759
0.0110004
0.673829
-0.674115
0.0112135
0.641684
-0.641897
0.0115255
0.610861
-0.611173
0.0119682
0.581349
-0.581792
0.0124442
0.553227
-0.553703
0.0128843
0.526376
-0.526816
0.0133011
0.500566
-0.500982
0.013704
0.475846
-0.476249
0.0140654
0.452144
-0.452505
0.0143891
0.429477
-0.4298
0.0150323
0.407755
-0.408398
0.0157994
0.387316
-0.388083
0.0163272
0.367779
-0.368307
0.0161401
0.349468
-0.349281
0.0157932
0.331803
-0.331456
0.015647
0.314954
-0.314808
0.015584
0.299014
-0.298951
0.0154209
0.283941
-0.283778
0.0150901
0.269786
-0.269456
0.0146874
0.256402
-0.255999
0.0142396
0.243668
-0.24322
0.0137391
0.231678
-0.231177
0.0131668
0.220427
-0.219855
0.012521
0.209813
-0.209167
0.0118121
0.199805
-0.199096
0.011037
0.190403
-0.189628
0.0102027
0.181546
-0.180712
0.0093243
0.173225
-0.172347
0.00840324
0.165412
-0.164491
0.00744731
0.158099
-0.157143
0.0064644
0.151253
-0.15027
0.00545782
0.144833
-0.143827
0.00446221
0.138819
-0.137823
0.00344875
0.133172
-0.132159
0.0024671
0.12771
-0.126728
0.0014879
0.12268
-0.121701
0.00055574
0.117889
-0.116957
-0.000279234
0.113539
-0.112704
-0.00117269
0.108982
-0.108089
-0.00195003
0.105478
-0.104701
-0.00187189
0.0970835
-0.0971616
0.0681233
-0.0699952
0.00526379
0.983106
0.00616731
0.945281
0.00652051
0.900424
0.00641195
0.857654
0.00641204
0.817066
0.00676129
0.778563
0.00710917
0.742081
0.00729594
0.707077
0.0076295
0.673495
0.00813137
0.641182
0.00860314
0.61039
0.00889191
0.581061
0.00918002
0.552939
0.00947166
0.526084
0.00976867
0.500269
0.0100762
0.475539
0.0103713
0.451849
0.0105626
0.429285
0.0103843
0.407933
0.00993852
0.387762
0.00962312
0.368094
0.00989547
0.349196
0.0102639
0.331434
0.0103362
0.314882
0.0100948
0.299255
0.00979227
0.284244
0.00954764
0.270031
0.009248
0.256701
0.00885001
0.244066
0.00838102
0.232147
0.00785352
0.220955
0.0072679
0.210398
0.00662703
0.200446
0.00594555
0.191085
0.00522481
0.182267
0.00447886
0.173971
0.0037226
0.166168
0.00295348
0.158868
0.0021836
0.152023
0.00142448
0.145592
0.000681549
0.139562
-2.59689e-06
0.133856
-0.000755294
0.128463
-0.00140109
0.123326
-0.00199607
0.118484
-0.00251087
0.114054
-0.00303117
0.109503
-0.00306369
0.10551
-0.00235863
0.0963784
0.0657647
0.00564641
0.97746
0.00628233
0.944645
0.00632799
0.900378
0.00578351
0.858198
0.00520868
0.81764
0.00450049
0.779271
0.00401747
0.742564
0.00379794
0.707297
0.00352855
0.673765
0.00319361
0.641517
0.00301022
0.610573
0.00307519
0.580996
0.00318333
0.552831
0.00336062
0.525907
0.0035445
0.500085
0.00371064
0.475373
0.00387154
0.451688
0.00403446
0.429122
0.00454385
0.407424
0.00537686
0.386929
0.00564792
0.367823
0.00527717
0.349567
0.00484127
0.33187
0.00465497
0.315068
0.00455732
0.299353
0.00434553
0.284456
0.00402122
0.270355
0.0036698
0.257053
0.00327092
0.244465
0.00284338
0.232574
0.00239763
0.221401
0.00192196
0.210874
0.00141806
0.20095
0.000883061
0.19162
0.000325494
0.182824
-0.000270555
0.174567
-0.000897002
0.166795
-0.00151287
0.159484
-0.00211521
0.152625
-0.00269343
0.14617
-0.00321869
0.140087
-0.0037072
0.134345
-0.00410873
0.128864
-0.00445339
0.12367
-0.00470034
0.118731
-0.00480973
0.114163
-0.00482984
0.109523
-0.00425171
0.104932
-0.00294546
0.0950722
0.0628192
0.00399396
0.973466
0.00353897
0.9451
0.00252783
0.90139
0.00172702
0.858999
0.00111337
0.818254
0.000765227
0.779619
0.000440203
0.742889
0.000125646
0.707611
3.25817e-05
0.673858
0.00011545
0.641434
0.000120686
0.610568
3.71099e-05
0.581079
-3.90943e-05
0.552907
-2.11066e-05
0.525889
3.63746e-05
0.500027
0.000108568
0.4753
0.000174589
0.451622
0.000206383
0.429091
-0.000217555
0.407848
-0.000927987
0.387639
-0.00125287
0.368148
-0.00104644
0.34936
-0.000755593
0.331579
-0.000715674
0.315028
-0.000902648
0.29954
-0.00116017
0.284713
-0.0013967
0.270592
-0.00165723
0.257313
-0.00197226
0.24478
-0.0023578
0.23296
-0.00279457
0.221837
-0.0032595
0.211339
-0.00374226
0.201433
-0.00422839
0.192106
-0.00471162
0.183307
-0.00517482
0.17503
-0.00561412
0.167234
-0.00603343
0.159903
-0.00641006
0.153002
-0.0067336
0.146494
-0.00700613
0.14036
-0.00719229
0.134531
-0.00725891
0.128931
-0.00720877
0.12362
-0.00704483
0.118567
-0.00673238
0.113851
-0.0063643
0.109155
-0.00542978
0.103998
-0.00356081
0.0932032
0.0592584
0.00377925
0.969687
0.00313938
0.94574
0.00222248
0.902306
0.00111094
0.86011
-0.000309058
0.819674
-0.00171471
0.781025
-0.00280312
0.743978
-0.00363505
0.708443
-0.00446967
0.674692
-0.00527987
0.642244
-0.00582847
0.611116
-0.00612744
0.581378
-0.00633806
0.553118
-0.00646444
0.526015
-0.00653292
0.500096
-0.00657734
0.475345
-0.00660943
0.451654
-0.00660325
0.429084
-0.0061708
0.407415
-0.00537436
0.386843
-0.00512049
0.367894
-0.00551405
0.349754
-0.00604244
0.332108
-0.00633564
0.315321
-0.00649214
0.299696
-0.00667597
0.284897
-0.00694243
0.270858
-0.00724666
0.257617
-0.00757597
0.245109
-0.00790434
0.233288
-0.00822131
0.222154
-0.00854023
0.211658
-0.00886572
0.201758
-0.00919409
0.192434
-0.00951699
0.18363
-0.00981423
0.175328
-0.0100749
0.167495
-0.0102879
0.160116
-0.0104496
0.153163
-0.0105412
0.146586
-0.0105327
0.140351
-0.0104243
0.134423
-0.0102306
0.128737
-0.00991533
0.123305
-0.00945435
0.118106
-0.00880015
0.113197
-0.00805912
0.108414
-0.00671031
0.102649
-0.00423524
0.0907281
0.0550232
0.00215095
0.967536
0.000250743
0.94764
-0.00213616
0.904693
-0.00355582
0.86153
-0.00479037
0.820909
-0.00570763
0.781942
-0.00663631
0.744906
-0.00752071
0.709328
-0.00801797
0.67519
-0.00831537
0.642541
-0.00868322
0.611484
-0.0090983
0.581793
-0.00942772
0.553447
-0.00968619
0.526274
-0.00987113
0.500281
-0.00999602
0.47547
-0.0100862
0.451744
-0.0102144
0.429213
-0.0107842
0.407985
-0.0116658
0.387725
-0.0120162
0.368245
-0.0117771
0.349515
-0.0115138
0.331845
-0.0115179
0.315325
-0.0116867
0.299865
-0.0118965
0.285107
-0.0120737
0.271036
-0.012252
0.257796
-0.0124637
0.245321
-0.0127325
0.233557
-0.0130274
0.222449
-0.0133212
0.211952
-0.0136069
0.202044
-0.0138602
0.192687
-0.0140613
0.183831
-0.0142007
0.175467
-0.0142889
0.167583
-0.0143176
0.160145
-0.0142621
0.153108
-0.014115
0.146438
-0.0138722
0.140108
-0.0135033
0.134054
-0.0130043
0.128238
-0.0123772
0.122678
-0.011633
0.117362
-0.0107371
0.112301
-0.00970428
0.107381
-0.00797928
0.100924
-0.00485923
0.0876081
0.0501639
0.0018119
0.965724
0.000124466
0.949327
-0.0022313
0.907049
-0.00429364
0.863592
-0.00647146
0.823087
-0.0085013
0.783972
-0.0101778
0.746583
-0.0115418
0.710692
-0.0129614
0.676609
-0.0142471
0.643827
-0.0151146
0.612352
-0.0157032
0.582382
-0.0160994
0.553843
-0.0164151
0.52659
-0.0166528
0.500518
-0.016835
0.475652
-0.0169835
0.451893
-0.0170232
0.429252
-0.016603
0.407565
-0.0158296
0.386951
-0.0155901
0.368005
-0.016039
0.349964
-0.0165142
0.33232
-0.0167834
0.315595
-0.0169546
0.300036
-0.0171204
0.285273
-0.0173229
0.271238
-0.017545
0.258018
-0.0177561
0.245532
-0.0179226
0.233724
-0.0180524
0.222579
-0.0181546
0.212054
-0.0182345
0.202124
-0.0182926
0.192745
-0.0183216
0.183861
-0.0183038
0.175449
-0.0182074
0.167487
-0.0180257
0.159963
-0.0177607
0.152843
-0.0173959
0.146074
-0.0169131
0.139625
-0.0163192
0.13346
-0.0156149
0.127534
-0.0147907
0.121854
-0.0138584
0.11643
-0.0128307
0.111273
-0.0114172
0.105967
-0.00925513
0.0987619
-0.00548096
0.0838339
0.044683
0.000379254
0.965344
-0.00359734
0.953304
-0.00671024
0.910162
-0.00911489
0.865997
-0.0111449
0.825117
-0.0127476
0.785575
-0.0142308
0.748066
-0.015555
0.712016
-0.0163959
0.67745
-0.0170226
0.644454
-0.017699
0.613028
-0.018352
0.583035
-0.0188983
0.55439
-0.0193193
0.527011
-0.0196301
0.500829
-0.0198535
0.475875
-0.0200221
0.452061
-0.0202732
0.429503
-0.0209011
0.408193
-0.0217861
0.387836
-0.0221255
0.368345
-0.0218656
0.349704
-0.0216349
0.332089
-0.0216235
0.315583
-0.0216933
0.300106
-0.0217792
0.285359
-0.021845
0.271304
-0.0218927
0.258066
-0.0219654
0.245605
-0.0220884
0.233847
-0.0222089
0.2227
-0.022297
0.212142
-0.0223402
0.202167
-0.02232
0.192725
-0.02222
0.183761
-0.0220363
0.175265
-0.0217833
0.167234
-0.0214462
0.159626
-0.0210052
0.152402
-0.0204574
0.145526
-0.0197975
0.138965
-0.0190085
0.132671
-0.0181014
0.126626
-0.0170806
0.120833
-0.0159455
0.115295
-0.0147791
0.110107
-0.0130374
0.104226
-0.0104983
0.0962228
-0.00605101
0.0793866
0.038632
0.000251433
0.965093
-0.00330698
0.956862
-0.00674865
0.913604
-0.00986216
0.869111
-0.012836
0.82809
-0.0155908
0.78833
-0.0178986
0.750374
-0.0198552
0.713973
-0.021804
0.679399
-0.0234437
0.646093
-0.0245897
0.614174
-0.0253975
0.583843
-0.0259848
0.554977
-0.0264082
0.527434
-0.0267154
0.501136
-0.0269282
0.476088
-0.0270497
0.452183
-0.0269767
0.42943
-0.0265113
0.407727
-0.0258206
0.387145
-0.0255767
0.368101
-0.0258956
0.350023
-0.0262034
0.332397
-0.026318
0.315698
-0.026394
0.300182
-0.026483
0.285447
-0.0265819
0.271403
-0.0266843
0.258168
-0.0267349
0.245655
-0.0266986
0.23381
-0.026614
0.222615
-0.0264873
0.212015
-0.0263147
0.201995
-0.026096
0.192507
-0.0258312
0.183496
-0.025509
0.174943
-0.0250959
0.166821
-0.0245879
0.159118
-0.0239829
0.151797
-0.0232695
0.144812
-0.022447
0.138143
-0.0215214
0.131745
-0.0204885
0.125593
-0.01936
0.119704
-0.0181267
0.114061
-0.0167577
0.108738
-0.0147825
0.10225
-0.0117887
0.0932289
-0.00658299
0.0741809
0.032049
-0.00120796
0.966301
-0.00660121
0.962256
-0.0110051
0.918008
-0.0146215
0.872727
-0.0175231
0.830992
-0.0198326
0.790639
-0.0218989
0.75244
-0.0236503
0.715724
-0.0247764
0.680525
-0.0257061
0.647023
-0.0266209
0.615089
-0.0274582
0.58468
-0.0281473
0.555666
-0.028654
0.527941
-0.0290179
0.5015
-0.0292626
0.476333
-0.0294562
0.452376
-0.0297145
0.429689
-0.0302675
0.40828
-0.0309365
0.387814
-0.0311707
0.368335
-0.0308999
0.349752
-0.0306478
0.332145
-0.0305803
0.31563
-0.0305236
0.300125
-0.0304312
0.285355
-0.0303112
0.271283
-0.030172
0.258029
-0.0300743
0.245558
-0.0300269
0.233763
-0.0299554
0.222544
-0.0298364
0.211896
-0.0296635
0.201822
-0.0294177
0.192261
-0.0290709
0.183149
-0.0286222
0.174495
-0.0280923
0.166291
-0.0274716
0.158498
-0.0267529
0.151078
-0.0259352
0.143995
-0.0250057
0.137213
-0.0239614
0.130701
-0.0228241
0.124456
-0.0215952
0.118476
-0.0203707
0.112837
-0.0187452
0.107112
-0.0165584
0.100064
-0.013053
0.0897236
-0.00710324
0.0682312
0.0249457
-0.00120023
0.967501
-0.00638207
0.967437
-0.0110389
0.922664
-0.0152773
0.876965
-0.0190886
0.834803
-0.022576
0.794126
-0.0255105
0.755374
-0.0279917
0.718205
-0.0303376
0.682871
-0.032209
0.648894
-0.0335188
0.616399
-0.0344464
0.585608
-0.035078
0.556298
-0.0355088
0.528372
-0.0357895
0.501781
-0.0359375
0.476481
-0.0359574
0.452396
-0.0358064
0.429538
-0.0353298
0.407804
-0.0346964
0.387181
-0.0343264
0.367965
-0.0344151
0.34984
-0.0345077
0.332237
-0.0344069
0.315529
-0.0343153
0.300034
-0.0342635
0.285303
-0.034239
0.271258
-0.034221
0.258011
-0.0341189
0.245456
-0.0339042
0.233548
-0.0336361
0.222275
-0.033325
0.211585
-0.0329522
0.201449
-0.0325157
0.191824
-0.0320299
0.182663
-0.0314913
0.173956
-0.0308728
0.165672
-0.0301695
0.157794
-0.0293677
0.150277
-0.0284592
0.143086
-0.0274588
0.136213
-0.0263692
0.129612
-0.0251767
0.123264
-0.0239029
0.117202
-0.0226274
0.111561
-0.0207725
0.105257
-0.0182894
0.0975806
-0.0140826
0.0855168
-0.00728638
0.0614349
0.0176594
-0.00321925
0.97072
-0.00982386
0.974042
-0.0152339
0.928074
-0.0200278
0.881759
-0.0237486
0.838524
-0.0266537
0.797032
-0.0291277
0.757848
-0.0311685
0.720246
-0.0325877
0.68429
-0.0338111
0.650118
-0.0349128
0.6175
-0.0358481
0.586543
-0.0365804
0.55703
-0.0371062
0.528897
-0.0374655
0.50214
-0.0376935
0.476709
-0.0378351
0.452538
-0.0379574
0.42966
-0.0381946
0.408041
-0.0385462
0.387533
-0.0386019
0.368021
-0.0382537
0.349492
-0.0379303
0.331914
-0.0377877
0.315387
-0.0376176
0.299864
-0.0373858
0.285072
-0.0370874
0.27096
-0.0367638
0.257687
-0.0365102
0.245202
-0.0363223
0.23336
-0.0361113
0.222064
-0.0358464
0.21132
-0.0355374
0.20114
-0.0351674
0.191454
-0.0347018
0.182197
-0.0341309
0.173385
-0.0334676
0.165009
-0.0327111
0.157038
-0.0318676
0.149433
-0.0309367
0.142155
-0.0298947
0.135171
-0.0287518
0.128469
-0.0275635
0.122075
-0.0263868
0.116025
-0.0249495
0.110124
-0.0228794
0.103187
-0.0198478
0.0945489
-0.0145476
0.0802166
-0.00638454
0.0532719
0.0112748
-0.00416381
0.974884
-0.0102169
0.980095
-0.0154993
0.933357
-0.0205326
0.886793
-0.0250462
0.843038
-0.0292347
0.80122
-0.0327087
0.761322
-0.0355909
0.723128
-0.0381353
0.686835
-0.0400764
0.652059
-0.0414534
0.618877
-0.0423901
0.58748
-0.0429632
0.557603
-0.0432876
0.529222
-0.0434014
0.502254
-0.0433323
0.47664
-0.0431256
0.452331
-0.0428047
0.429339
-0.0423137
0.40755
-0.0416688
0.386888
-0.0411888
0.367541
-0.0410144
0.349318
-0.0408352
0.331735
-0.0405291
0.315081
-0.0402689
0.299603
-0.0400738
0.284876
-0.0399743
0.27086
-0.0399074
0.25762
-0.0397404
0.245035
-0.0394432
0.233063
-0.0390959
0.221717
-0.0387257
0.21095
-0.0382873
0.200701
-0.0377692
0.190936
-0.0371957
0.181624
-0.0365802
0.17277
-0.0359126
0.164341
-0.0351749
0.1563
-0.0343395
0.148598
-0.0333996
0.141216
-0.0323819
0.134153
-0.0312794
0.127366
-0.0300732
0.120869
-0.0289163
0.114868
-0.0272111
0.108419
-0.0249121
0.100888
-0.0210902
0.090727
-0.0143316
0.073458
-0.00476262
0.0437029
0.00651219
-0.00480771
0.979692
-0.0131961
0.988483
-0.0197251
0.939886
-0.0252887
0.892356
-0.0295338
0.847283
-0.0328822
0.804569
-0.035735
0.764175
-0.0380859
0.725479
-0.0398272
0.688576
-0.0412517
0.653483
-0.0424336
0.620059
-0.0433691
0.588415
-0.0440594
0.558293
-0.0444982
0.529661
-0.0447253
0.502481
-0.0447881
0.476702
-0.0447334
0.452277
-0.0445888
0.429194
-0.0444497
0.407411
-0.0443847
0.386823
-0.0441388
0.367295
-0.0436644
0.348843
-0.0432874
0.331358
-0.0430342
0.314828
-0.0427562
0.299325
-0.0424367
0.284557
-0.0420249
0.270449
-0.0415979
0.257193
-0.0412698
0.244707
-0.0410518
0.232845
-0.0408286
0.221494
-0.0405431
0.210665
-0.0402216
0.20038
-0.0398636
0.190578
-0.0394417
0.181202
-0.0389265
0.172254
-0.038306
0.163721
-0.0375925
0.155587
-0.0368012
0.147806
-0.0359256
0.14034
-0.0349313
0.133159
-0.0338523
0.126287
-0.0328619
0.119879
-0.0316106
0.113617
-0.0296433
0.106452
-0.0267864
0.0980313
-0.0219625
0.0859032
-0.0139432
0.0654386
-0.00315103
0.0329108
0.00336116
-0.00553577
0.985228
-0.0126883
0.995636
-0.0191311
0.946329
-0.025262
0.898487
-0.0305758
0.852596
-0.0354197
0.809412
-0.0394021
0.768158
-0.0426169
0.728694
-0.0452622
0.691221
-0.0472502
0.655471
-0.0486063
0.621415
-0.0494322
0.589241
-0.049831
0.558692
-0.0498984
0.529728
-0.0497018
0.502284
-0.0493062
0.476307
-0.0487623
0.451733
-0.0481245
0.428556
-0.0474066
0.406693
-0.0466677
0.386084
-0.0460632
0.36669
-0.0456057
0.348386
-0.0451102
0.330862
-0.0446549
0.314372
-0.0442809
0.298951
-0.0440136
0.28429
-0.0439172
0.270352
-0.0438999
0.257176
-0.0438035
0.244611
-0.0435521
0.232594
-0.0432603
0.221202
-0.0429802
0.210385
-0.0426514
0.200051
-0.0422427
0.190169
-0.0417636
0.180723
-0.0412411
0.171732
-0.0406907
0.16317
-0.040077
0.154973
-0.0393644
0.147094
-0.0385544
0.13953
-0.0376802
0.132285
-0.0367775
0.125385
-0.035887
0.118988
-0.034294
0.112024
-0.032115
0.104273
-0.0286365
0.0945528
-0.0225925
0.0798592
-0.013126
0.0559721
-0.00188832
0.0216731
0.00147284
-0.0068757
0.992103
-0.0163736
1.00513
-0.0236481
0.953603
-0.0297945
0.904634
-0.0346388
0.857441
-0.0385867
0.81336
-0.0419424
0.771513
-0.0446977
0.731449
-0.0467726
0.693296
-0.0483783
0.657077
-0.0496064
0.622644
-0.0504723
0.590107
-0.0510117
0.559232
-0.0512247
0.529941
-0.0511601
0.50222
-0.0508886
0.476035
-0.0504731
0.451317
-0.0499735
0.428057
-0.0493992
0.406119
-0.0487542
0.385439
-0.0480732
0.366009
-0.0474311
0.347744
-0.0469474
0.330378
-0.0465355
0.31396
-0.0461688
0.298585
-0.0457956
0.283916
-0.0453686
0.269925
-0.044946
0.256753
-0.044653
0.244318
-0.044548
0.232489
-0.044479
0.221133
-0.0443523
0.210258
-0.0441851
0.199884
-0.043996
0.18998
-0.0437796
0.180507
-0.0434934
0.171446
-0.0430906
0.162767
-0.0425908
0.154473
-0.042023
0.146526
-0.0413769
0.138884
-0.0406462
0.131554
-0.0400118
0.12475
-0.0389708
0.117947
-0.0373825
0.110436
-0.0350466
0.101937
-0.030778
0.0902842
-0.0228742
0.0719553
-0.0107307
0.0438286
-0.00120026
0.0121427
0.000272579
-0.00621672
0.99832
-0.0148392
1.01376
-0.0225001
0.961264
-0.0296682
0.911802
-0.0358311
0.863604
-0.0413356
0.818865
-0.0458179
0.775995
-0.0493903
0.735022
-0.0522909
0.696197
-0.0544046
0.659191
-0.0557504
0.623989
-0.0563664
0.590723
-0.0564425
0.559308
-0.0561281
0.529627
-0.0554998
0.501592
-0.0546302
0.475166
-0.0535848
0.450272
-0.0524126
0.426885
-0.0513183
0.405024
-0.0503681
0.384489
-0.0494735
0.365115
-0.0486127
0.346883
-0.0478296
0.329595
-0.0472042
0.313335
-0.0467469
0.298127
-0.0464911
0.283661
-0.0464725
0.269907
-0.0466231
0.256904
-0.046733
0.244428
-0.0466775
0.232433
-0.0465887
0.221044
-0.0465385
0.210208
-0.0464767
0.199822
-0.0463507
0.189854
-0.0461441
0.1803
-0.0458831
0.171185
-0.0456103
0.162495
-0.0452893
0.154152
-0.0448756
0.146112
-0.0444004
0.138409
-0.0439721
0.131126
-0.0434528
0.124231
-0.0422812
0.116776
-0.0405615
0.108716
-0.0374698
0.0988449
-0.0315682
0.0843826
-0.0214389
0.061826
-0.00707448
0.0294642
-0.000894575
0.00596278
-0.000621996
-0.00866604
1.00699
-0.0183109
1.0234
-0.0263065
0.96926
-0.0334565
0.918952
-0.0392985
0.869445
-0.0441407
0.823707
-0.0482135
0.780068
-0.0515576
0.738366
-0.0540745
0.698714
-0.055976
0.661092
-0.0573445
0.625358
-0.0582171
0.591595
-0.0585773
0.559668
-0.0584452
0.529495
-0.0578719
0.501018
-0.0570063
0.4743
-0.0560269
0.449292
-0.0549301
0.425788
-0.0536238
0.403718
-0.0522367
0.383102
-0.0510792
0.363957
-0.0501408
0.345945
-0.0493789
0.328833
-0.0487645
0.312721
-0.0483002
0.297663
-0.0479013
0.283262
-0.0475284
0.269534
-0.0471911
0.256566
-0.0470643
0.244301
-0.0472103
0.232579
-0.0474534
0.221287
-0.0476555
0.21041
-0.047807
0.199974
-0.0479464
0.189994
-0.0480948
0.180448
-0.0482066
0.171296
-0.0481957
0.162484
-0.048072
0.154029
-0.0478956
0.145936
-0.0476808
0.138194
-0.0475168
0.130962
-0.0468416
0.123556
-0.0456741
0.115608
-0.0436516
0.106693
-0.0393028
0.0944961
-0.0305969
0.0756768
-0.016717
0.047946
-0.00375955
0.0165068
-0.000317421
0.00252065
-0.000939418
-0.0073209
1.01431
-0.0167765
1.03286
-0.025289
0.977772
-0.0331704
0.926833
-0.0402621
0.876537
-0.0467117
0.830157
-0.0520499
0.785406
-0.0564363
0.742752
-0.0599532
0.70223
-0.0624624
0.663602
-0.0640383
0.626934
-0.0646188
0.592176
-0.0643579
0.559407
-0.0635526
0.52869
-0.0622836
0.499749
-0.060677
0.472693
-0.0588863
0.447502
-0.0571338
0.424035
-0.055531
0.402115
-0.0539723
0.381543
-0.052365
0.36235
-0.0508783
0.344458
-0.0497083
0.327663
-0.0488106
0.311823
-0.0482269
0.297079
-0.0479686
0.283003
-0.0480936
0.269659
-0.0485099
0.256983
-0.048907
0.244698
-0.0491645
0.232837
-0.0494056
0.221528
-0.0497257
0.21073
-0.0500946
0.200342
-0.0504165
0.190316
-0.0506262
0.180658
-0.0507518
0.171422
-0.0508798
0.162612
-0.050993
0.154142
-0.0510358
0.145979
-0.0511445
0.138303
-0.051031
0.130848
-0.0502742
0.122799
-0.048909
0.114243
-0.0456404
0.103425
-0.038868
0.0877237
-0.0272778
0.0640866
-0.0107935
0.0314618
-0.00230007
0.00801341
-0.000165304
0.000385882
-0.00110472
-0.0074572
1.02176
-0.0180795
1.04348
-0.0275513
0.987244
-0.0359688
0.935251
-0.0429573
0.883526
-0.0490429
0.836242
-0.0542352
0.790599
-0.0585478
0.747065
-0.061964
0.705647
-0.0645453
0.666183
-0.0662868
0.628675
-0.0674289
0.593318
-0.0677829
0.559761
-0.0674171
0.528324
-0.0664164
0.498749
-0.0648472
0.471124
-0.062781
0.445436
-0.0604422
0.421697
-0.058112
0.399785
-0.0560504
0.379482
-0.0542672
0.360566
-0.0526233
0.342814
-0.0512867
0.326327
-0.0503223
0.310859
-0.0496142
0.296371
-0.0491237
0.282513
-0.0487314
0.269266
-0.0485074
0.256759
-0.048673
0.244864
-0.0492364
0.2334
-0.0499749
0.222267
-0.0506645
0.211419
-0.0512403
0.200918
-0.0518049
0.19088
-0.0524365
0.18129
-0.0530771
0.172063
-0.0535921
0.163127
-0.0539723
0.154522
-0.0543396
0.146346
-0.0546855
0.138649
-0.0543528
0.130515
-0.0534988
0.121945
-0.0513171
0.112061
-0.0463323
0.09844
-0.0363562
0.0777476
-0.0200359
0.0477662
-0.00554393
0.0169698
-0.0010539
0.00352337
9.70106e-06
-0.000677717
-0.00109502
-0.0072588
1.02902
-0.0162425
1.05246
-0.0252205
0.996222
-0.0343387
0.944369
-0.0428712
0.892058
-0.0507704
0.844141
-0.0576097
0.797438
-0.0635027
0.752958
-0.0682291
0.710373
-0.071808
0.669762
-0.0741446
0.631012
-0.0751768
0.59435
-0.0750467
0.559631
-0.0738975
0.527174
-0.072046
0.496897
-0.0696807
0.468759
-0.0670096
0.442764
-0.0641256
0.418813
-0.0610933
0.396753
-0.0581396
0.376528
-0.05549
0.357917
-0.0532254
0.340549
-0.0513455
0.324447
-0.0499605
0.309474
-0.0490671
0.295478
-0.0487602
0.282206
-0.0490878
0.269594
-0.0497768
0.257448
-0.0504686
0.245555
-0.0510744
0.234006
-0.0516894
0.222882
-0.0524513
0.212181
-0.0534113
0.201878
-0.0543842
0.191853
-0.0551809
0.182086
-0.0558103
0.172692
-0.0564119
0.163728
-0.0570187
0.155129
-0.0577107
0.147038
-0.0579142
0.138852
-0.057537
0.130138
-0.0563245
0.120732
-0.0526892
0.108426
-0.0442508
0.0900016
-0.0296413
0.0631381
-0.0114575
0.0295825
-0.00279656
0.00830886
-0.0003353
0.00106212
0.000103056
-0.00111607
-0.000991966
-0.00643237
1.03546
-0.0168721
1.0629
-0.0266993
1.00605
-0.0356372
0.953307
-0.043913
0.900334
-0.05178
0.852008
-0.0587178
0.804376
-0.0647542
0.758994
-0.0698607
0.71548
-0.0738661
0.673767
-0.0767634
0.633909
-0.078537
0.596124
-0.0792404
0.560334
-0.0788679
0.526802
-0.0774716
0.495501
-0.0752023
0.46649
-0.0722885
0.439851
-0.068965
0.415489
-0.065444
0.393232
-0.0619125
0.372996
-0.0586184
0.354623
-0.0558056
0.337737
-0.0534183
0.32206
-0.0516285
0.307684
-0.0503994
0.294249
-0.0495392
0.281346
-0.0489422
0.268997
-0.0488455
0.257351
-0.0494002
0.24611
-0.0504643
0.23507
-0.0518484
0.224266
-0.0532816
0.213615
-0.0544983
0.203095
-0.0555766
0.192932
-0.0567212
0.183231
-0.0579169
0.173888
-0.0590229
0.164834
-0.0601003
0.156206
-0.0609262
0.147864
-0.0610172
0.138943
-0.0604434
0.129564
-0.0578767
0.118166
-0.0512807
0.10183
-0.0389693
0.0776903
-0.0194525
0.0436213
-0.00537189
0.0155019
-0.00102194
0.0039589
0.000107554
-6.73733e-05
0.000156023
-0.00116454
-0.000835942
-0.00252897
1.03798
-0.0118048
1.07218
-0.0218128
1.01606
-0.0320087
0.963503
-0.0419839
0.910309
-0.0515731
0.861598
-0.0606152
0.813418
-0.0688174
0.767196
-0.0757569
0.722419
-0.0813753
0.679385
-0.0855201
0.638054
-0.0880027
0.598606
-0.0888199
0.561151
-0.0880415
0.526024
-0.0858908
0.49335
-0.082673
0.463272
-0.0787156
0.435893
-0.0743031
0.411076
-0.0696969
0.388626
-0.0651264
0.368426
-0.0608344
0.350331
-0.0570172
0.333919
-0.0538674
0.31891
-0.0513935
0.30521
-0.049697
0.292552
-0.04904
0.280689
-0.0493599
0.269317
-0.0501147
0.258106
-0.0510365
0.247032
-0.0521586
0.236192
-0.0533475
0.225455
-0.0546349
0.214902
-0.0561734
0.204633
-0.057886
0.194644
-0.059476
0.184821
-0.0608303
0.175242
-0.0620823
0.166086
-0.063358
0.157482
-0.0639376
0.148444
-0.0639229
0.138928
-0.062431
0.128073
-0.0577115
0.113446
-0.0472816
0.0913999
-0.0284496
0.0588583
-0.00979603
0.0249677
-0.00248883
0.00819468
-0.000353899
0.00182397
0.00010216
-0.000523432
8.97891e-05
-0.00115217
-0.000746153
-0.0010525
1.03904
-0.0106252
1.08175
-0.0201204
1.02555
-0.0301756
0.973558
-0.0401305
0.920264
-0.0500687
0.871536
-0.0593388
0.822688
-0.0679668
0.775824
-0.0758599
0.730312
-0.0824415
0.685967
-0.087617
0.64323
-0.0913335
0.602323
-0.0933653
0.563183
-0.0936639
0.526322
-0.0924798
0.492166
-0.0899741
0.460766
-0.0862376
0.432157
-0.0816548
0.406494
-0.0765845
0.383555
-0.0712787
0.36312
-0.0660295
0.345082
-0.0612403
0.32913
-0.0572042
0.314874
-0.0540605
0.302066
-0.0516705
0.290162
-0.0498907
0.278909
-0.0487826
0.268209
-0.0487286
0.258052
-0.0496128
0.247916
-0.051095
0.237674
-0.0530765
0.227437
-0.0553345
0.21716
-0.0575685
0.206867
-0.0595327
0.196608
-0.0613015
0.18659
-0.0631109
0.177052
-0.0650786
0.168054
-0.0664448
0.158848
-0.067018
0.149017
-0.0665185
0.138429
-0.0633821
0.124936
-0.0546694
0.104734
-0.0377346
0.0744651
-0.0162356
0.0373593
-0.00496652
0.0136985
-0.00132856
0.00455672
-0.000321326
0.000816741
-9.07432e-05
-0.000754015
-3.25815e-05
-0.00121033
-0.000778735
0.00312494
1.03591
-0.00445699
1.08933
-0.0134219
1.03452
-0.0239833
0.984119
-0.0350451
0.931326
-0.0465879
0.883079
-0.0582286
0.834329
-0.0692904
0.786886
-0.079509
0.740531
-0.088714
0.695172
-0.0960973
0.650613
-0.101424
0.60765
-0.104674
0.566432
-0.105649
0.527297
-0.104345
0.490862
-0.101016
0.457438
-0.0960715
0.427212
-0.0899881
0.40041
-0.0833071
0.376874
-0.0764771
0.35629
-0.0698376
0.338442
-0.0636745
0.322967
-0.0583684
0.309568
-0.0540694
0.297767
-0.0509637
0.287056
-0.0494186
0.277364
-0.0492383
0.268029
-0.0497471
0.258561
-0.0507856
0.248954
-0.0523895
0.239278
-0.0544035
0.22945
-0.0565815
0.219338
-0.0588125
0.209098
-0.0612302
0.199026
-0.0638214
0.189181
-0.0662942
0.179524
-0.0682802
0.17004
-0.069336
0.159904
-0.0694954
0.149176
-0.0675882
0.136522
-0.0607051
0.118053
-0.0464239
0.0904524
-0.023853
0.0518942
-0.00778647
0.0212928
-0.00222089
0.00813295
-0.000401051
0.00273688
5.73761e-05
0.000358314
4.28757e-05
-0.000739515
-3.41798e-05
-0.00113328
-0.000812915
0.00388521
1.03203
-0.00140544
1.09462
-0.00950203
1.04261
-0.0193426
0.99396
-0.0298594
0.941843
-0.0414304
0.89465
-0.0530101
0.845908
-0.0646828
0.798559
-0.0758718
0.75172
-0.0862135
0.705514
-0.0953948
0.659794
-0.102647
0.614902
-0.107664
0.571449
-0.110349
0.529983
-0.110618
0.491131
-0.108662
0.455482
-0.104739
0.423289
-0.0991769
0.394848
-0.0924341
0.370131
-0.0849658
0.348822
-0.0772044
0.330681
-0.0697771
0.31554
-0.0632218
0.303012
-0.0577816
0.292327
-0.0534562
0.282731
-0.0499301
0.273838
-0.0476887
0.265787
-0.047054
0.257926
-0.0479595
0.24986
-0.0499558
0.241275
-0.0525556
0.23205
-0.0556326
0.222415
-0.0590759
0.212542
-0.0624381
0.202388
-0.065348
0.192091
-0.0679732
0.18215
-0.0699019
0.171969
-0.0710627
0.161065
-0.0706741
0.148788
-0.0658248
0.131672
-0.0542025
0.106431
-0.0324131
0.068663
-0.0116592
0.0311403
-0.00302308
0.0126566
0.000131016
0.00497885
0.0011604
0.00170749
0.00120476
0.000313956
0.000744691
-0.000279444
0.000206449
-0.000595037
-0.000606466
0.010106
1.02192
0.00645273
1.09828
-0.000670043
1.04974
-0.0101899
1.00348
-0.0212823
0.952935
-0.0340466
0.907414
-0.0478604
0.859722
-0.062098
0.812796
-0.0759262
0.765548
-0.089044
0.718632
-0.101085
0.671835
-0.111343
0.62516
-0.119012
0.579117
-0.123732
0.534704
-0.125237
0.492636
-0.123461
0.453705
-0.118716
0.418544
-0.111437
0.38757
-0.1025
0.361194
-0.0930805
0.339402
-0.0836177
0.321218
-0.0742747
0.306197
-0.0656677
0.294406
-0.0582839
0.284943
-0.0528299
0.277277
-0.0495254
0.270533
-0.0479427
0.264204
-0.0477431
0.257726
-0.0485337
0.250651
-0.050382
0.243123
-0.0531982
0.234866
-0.0565992
0.225816
-0.0599963
0.215939
-0.0633595
0.205751
-0.0671767
0.195908
-0.0706875
0.18566
-0.0729229
0.174204
-0.0732668
0.161409
-0.0700959
0.145617
-0.0609503
0.122527
-0.0416753
0.0871558
-0.0174073
0.0443949
-0.0044982
0.0182313
0.000640377
0.00751804
0.00261986
0.00299937
0.00304914
0.00127822
0.00260354
0.000759553
0.0016338
0.000690297
0.000550438
0.000488322
-5.60283e-05
0.0080692
1.01385
0.00830531
1.09804
0.00351556
1.05453
-0.00381759
1.01081
-0.0134328
0.96255
-0.0250574
0.919039
-0.0379474
0.872612
-0.0525775
0.827427
-0.0674808
0.780451
-0.0818572
0.733008
-0.0955401
0.685518
-0.108098
0.637718
-0.118273
0.589292
-0.12552
0.541951
-0.129538
0.496654
-0.130199
0.454366
-0.127792
0.416137
-0.122636
0.382414
-0.114702
0.35326
-0.104665
0.329364
-0.0940203
0.310574
-0.0835008
0.295677
-0.0735906
0.284495
-0.0647423
0.276095
-0.0570071
0.269542
-0.0506246
0.264151
-0.0461634
0.259743
-0.0439875
0.25555
-0.0443018
0.250965
-0.0464727
0.245294
-0.0498725
0.238266
-0.0541204
0.230064
-0.0589506
0.220769
-0.064049
0.21085
-0.0685978
0.200457
-0.0717175
0.18878
-0.073367
0.175854
-0.0723274
0.160369
-0.0660357
0.139325
-0.0508049
0.107296
-0.0251091
0.06146
-0.0070748
0.0263606
0.000310792
0.0108457
0.00334497
0.00448386
0.00423788
0.00210645
0.00403057
0.00148553
0.00316718
0.00162294
0.0018494
0.00200808
0.00059618
0.00174154
0.000540152
0.0166608
0.997191
0.0192307
1.09547
0.0140317
1.05973
0.00596591
1.01888
-0.00360434
0.972121
-0.01551
0.930944
-0.0296762
0.886778
-0.0459363
0.843687
-0.0626399
0.797155
-0.0799387
0.750307
-0.0970964
0.702676
-0.113512
0.654134
-0.127981
0.603761
-0.139224
0.553194
-0.146108
0.503537
-0.147788
0.456046
-0.144468
0.412817
-0.137464
0.37541
-0.127963
0.34376
-0.116491
0.317892
-0.103607
0.29769
-0.0904153
0.282486
-0.0774443
0.271524
-0.0659997
0.26465
-0.0570928
0.260635
-0.0506997
0.257758
-0.0465432
0.255587
-0.044421
0.253428
-0.0441584
0.250702
-0.0457424
0.246878
-0.049472
0.241996
-0.0545444
0.235136
-0.0598279
0.226053
-0.0654044
0.216426
-0.0699979
0.20505
-0.0724505
0.191233
-0.0722482
0.175651
-0.0685106
0.156631
-0.0590855
0.1299
-0.0346486
0.0828588
-0.0117327
0.0385441
-0.00179196
0.0164199
0.00209635