/*--------------------------------*- C++ -*----------------------------------*\
| =========                 |                                                 |
| \\      /  F ield         | OpenFOAM: The Open Source CFD Toolbox           |
|  \\    /   O peration     | Version:  v1912                                 |
|   \\  /    A nd           | Website:  www.openfoam.com                      |
|    \\/     M anipulation  |                                                 |
\*---------------------------------------------------------------------------*/
FoamFile
{
    version     2.0;
    format      ascii;
    class       volVectorField;
    location    "0.3";
    object      U;
}
// * * * * * * * * * * * * * * * * * * * * * * * * * * * * * * * * * * * * * //

dimensions      [0 1 -1 0 0 0 0];


internalField   nonuniform List<vector> 
6600
(
(39.839 -0.0487901 0)
(40.1096 -0.0574124 1.10877e-20)
(40.1731 0.0300083 7.78654e-19)
(40.212 0.128929 0)
(40.2564 0.229999 9.46524e-19)
(40.3069 0.362513 3.14249e-20)
(40.3663 0.523867 -3.4892e-20)
(40.4175 0.663656 -3.80995e-20)
(40.4589 0.819827 7.87588e-19)
(40.4799 0.98494 -1.18918e-19)
(40.4718 1.16922 0)
(40.4733 1.34366 -9.70312e-19)
(40.4733 1.52628 0)
(40.4714 1.72072 -9.9887e-19)
(40.452 1.92573 -1.44245e-18)
(40.4188 2.14236 -7.65471e-19)
(40.3672 2.37044 0)
(40.3067 2.60671 0)
(40.2427 2.86976 1.22257e-18)
(40.2295 3.11508 -1.028e-18)
(40.1961 3.31426 -1.5988e-19)
(40.0823 3.621 -6.1724e-19)
(39.9338 4.02991 -1.09974e-18)
(39.7994 4.42513 2.25352e-19)
(39.6838 4.80669 8.82671e-19)
(39.5452 5.21037 0)
(39.3912 5.67686 1.94868e-18)
(39.2712 6.19438 0)
(39.1264 6.73877 -7.87935e-19)
(38.9637 7.32364 -4.31547e-19)
(38.8142 7.95989 -4.10359e-19)
(38.6611 8.65338 -4.45035e-19)
(38.5027 9.40247 -2.47779e-19)
(38.3477 10.2155 2.92934e-19)
(38.1905 11.098 4.32068e-19)
(38.0383 12.0516 1.31125e-19)
(37.8919 13.0805 7.00366e-19)
(37.7577 14.1959 1.09507e-19)
(37.6471 15.3986 1.06654e-20)
(37.5547 16.7001 -1.80249e-19)
(37.4769 18.096 -2.34001e-19)
(37.4325 19.592 0)
(37.3926 21.1783 8.78674e-19)
(37.363 22.8836 -1.80914e-18)
(37.3772 24.6779 0)
(37.4945 26.6709 -2.6689e-18)
(37.5675 28.601 -6.23108e-18)
(37.9938 30.9434 0)
(36.4952 32.1218 0)
(26.9386 25.7043 -3.23745e-18)
(39.7367 -0.0329195 6.52417e-19)
(40.1792 -0.0473982 -6.58911e-19)
(40.2317 0.0778523 0)
(40.2787 0.204849 -1.2258e-20)
(40.3225 0.334724 8.34718e-19)
(40.3661 0.478014 2.90619e-20)
(40.4223 0.608083 -5.28837e-22)
(40.4706 0.759304 -3.5278e-20)
(40.5122 0.915895 0)
(40.5416 1.07446 -1.30549e-18)
(40.5901 1.2295 -4.68248e-20)
(40.6246 1.4093 7.62582e-19)
(40.6497 1.60101 7.80901e-19)
(40.6593 1.80352 6.26676e-19)
(40.6504 2.01545 2.13996e-22)
(40.6279 2.23869 7.77956e-20)
(40.5884 2.4734 -6.15605e-19)
(40.5395 2.71685 0)
(40.4762 2.97672 0)
(40.387 3.33942 1.04388e-18)
(40.2877 3.7012 1.28132e-19)
(40.1949 4.03316 -6.21218e-19)
(40.0831 4.32906 -5.17457e-19)
(40.0073 4.68572 -5.52802e-19)
(39.9298 5.10087 -4.02788e-19)
(39.8293 5.55838 -2.01804e-19)
(39.7342 6.0334 -3.20667e-19)
(39.6173 6.5397 -2.29831e-19)
(39.4979 7.09385 7.2319e-19)
(39.3921 7.69404 3.61184e-19)
(39.2834 8.34572 -7.95922e-19)
(39.1737 9.04874 6.81142e-19)
(39.0689 9.80982 6.87873e-20)
(38.9722 10.6314 -3.73797e-19)
(38.8785 11.5179 4.77401e-19)
(38.7991 12.4719 -1.34112e-19)
(38.7351 13.4972 -7.2086e-19)
(38.6982 14.6005 -1.48013e-19)
(38.6866 15.7862 6.14428e-19)
(38.7008 17.0545 7.37255e-19)
(38.7593 18.4182 0)
(38.8279 19.8726 0)
(38.9327 21.3988 1.42452e-18)
(39.1226 23.0386 -1.68303e-18)
(39.3821 24.7627 -4.89133e-18)
(39.7075 26.6567 2.75604e-18)
(40.0136 28.5226 8.42374e-18)
(40.6015 30.714 0)
(39.1408 31.4581 -7.79292e-18)
(28.2208 24.6333 3.59006e-18)
(39.661 -0.0336042 -5.49881e-20)
(40.3001 -0.0822737 6.72851e-19)
(40.3575 0.0664142 6.49923e-19)
(40.4078 0.190065 -4.25398e-22)
(40.4624 0.331578 -1.24346e-19)
(40.521 0.499137 2.68907e-20)
(40.5844 0.682787 0)
(40.6383 0.844757 0)
(40.6815 1.02378 0)
(40.7047 1.21939 6.72348e-19)
(40.7011 1.42826 -4.067e-20)
(40.7072 1.62967 -7.67669e-19)
(40.7049 1.83524 -4.53487e-19)
(40.7103 2.05098 7.86408e-19)
(40.7018 2.27675 4.04089e-19)
(40.6813 2.51524 -6.22642e-20)
(40.6467 2.76788 1.1592e-18)
(40.6086 3.03559 -4.99065e-19)
(40.5764 3.31193 -5.30824e-19)
(40.5731 3.54894 0)
(40.5762 3.80799 -2.90402e-19)
(40.4948 4.14787 4.84445e-19)
(40.3888 4.57472 5.23666e-19)
(40.2861 4.98561 5.59779e-19)
(40.2236 5.4065 4.88997e-19)
(40.1476 5.84874 4.98365e-20)
(40.047 6.34091 -5.56359e-20)
(39.9844 6.87674 2.38378e-21)
(39.913 7.45023 -4.3355e-20)
(39.8355 8.06588 2.70528e-19)
(39.7808 8.72664 9.39443e-21)
(39.7332 9.43533 0)
(39.6885 10.1955 3.5862e-19)
(39.6579 11.0119 -1.90342e-19)
(39.6387 11.8925 -5.07012e-19)
(39.6403 12.8385 -1.4116e-18)
(39.6638 13.8504 1.04362e-19)
(39.7165 14.9339 7.02535e-19)
(39.8138 16.0922 5.4724e-19)
(39.9512 17.3355 0)
(40.1328 18.6528 2.45662e-18)
(40.3761 20.0601 0)
(40.6431 21.526 0)
(40.9515 23.0754 4.88717e-18)
(41.3497 24.6968 2.82159e-18)
(41.8728 26.4858 -4.62974e-18)
(42.4091 28.2794 -4.84997e-18)
(43.0652 30.1633 0)
(41.4745 30.4809 -4.73946e-18)
(29.1259 23.2011 5.08348e-18)
(39.6094 0.00690832 -6.01796e-19)
(40.4299 -0.0320561 4.38357e-21)
(40.4476 0.179922 -6.68077e-19)
(40.5125 0.309804 -5.88506e-19)
(40.5545 0.462946 -7.30288e-19)
(40.6043 0.623928 -3.28401e-19)
(40.6643 0.776578 -2.52639e-20)
(40.7141 0.948888 0)
(40.7587 1.12567 4.10072e-19)
(40.7991 1.29856 4.67461e-19)
(40.8567 1.47731 -3.36544e-20)
(40.8982 1.67989 -3.49161e-20)
(40.9307 1.89476 -3.07741e-19)
(40.9406 2.11803 -1.40876e-19)
(40.9433 2.3488 -7.46305e-20)
(40.9355 2.59195 -4.50719e-20)
(40.9123 2.84667 -1.17462e-19)
(40.8819 3.11964 5.52978e-19)
(40.8394 3.40566 6.30591e-19)
(40.7643 3.78814 0)
(40.7024 4.17973 1.68833e-19)
(40.6656 4.53898 0)
(40.59 4.85879 0)
(40.5564 5.23362 -2.9908e-20)
(40.5233 5.65735 -8.19731e-21)
(40.4767 6.13212 1.13596e-19)
(40.4476 6.63264 3.0566e-21)
(40.4059 7.16078 3.71327e-20)
(40.3736 7.73009 0)
(40.3571 8.34514 0)
(40.347 9.01409 -4.08268e-19)
(40.3489 9.73198 0)
(40.3676 10.5013 -5.21552e-20)
(40.4056 11.3244 -7.84188e-19)
(40.46 12.2013 1.26831e-18)
(40.541 13.1366 1.90297e-18)
(40.6582 14.1299 -3.12731e-18)
(40.8209 15.1903 1.18321e-18)
(41.0231 16.3167 4.50798e-19)
(41.2731 17.5048 5.25527e-19)
(41.5807 18.7664 -5.87321e-18)
(41.9229 20.0946 0)
(42.3492 21.4775 0)
(42.8714 22.931 -2.85078e-18)
(43.4753 24.4349 -4.48643e-18)
(44.151 26.0638 -9.1121e-19)
(44.8662 27.7685 -7.07367e-18)
(45.5139 29.3969 7.81439e-18)
(43.6163 29.2688 1.04496e-17)
(29.6464 21.4841 0)
(39.5675 0.0110356 -1.84023e-21)
(40.5927 -0.0370419 4.46043e-19)
(40.63 0.178911 4.81046e-19)
(40.697 0.285338 6.10731e-19)
(40.7507 0.464112 0)
(40.8093 0.651837 6.68022e-20)
(40.8713 0.854272 0)
(40.9222 1.03996 -2.09836e-20)
(40.9674 1.24024 -7.00281e-19)
(40.9874 1.46121 -4.62833e-19)
(40.9862 1.68905 2.59337e-20)
(40.9923 1.90569 2.54634e-20)
(41.0098 2.13576 -2.83382e-20)
(41.02 2.37221 -2.7765e-19)
(41.0239 2.61686 -4.80443e-19)
(41.0205 2.87437 3.00784e-20)
(41.0055 3.14391 -4.34173e-19)
(40.9875 3.43482 2.256e-20)
(40.9813 3.73499 -1.56962e-19)
(40.9957 3.97358 -3.30755e-20)
(41.0171 4.23823 1.39628e-19)
(40.9816 4.59796 0)
(40.9313 5.04348 0)
(40.8706 5.47465 1.6126e-19)
(40.8736 5.92286 4.20058e-20)
(40.871 6.38564 -3.91859e-19)
(40.8361 6.88802 6.81483e-20)
(40.8427 7.43323 0)
(40.8571 8.02012 -1.69546e-19)
(40.8822 8.64304 1.88856e-19)
(40.9346 9.30735 4.14957e-19)
(41.0071 10.0155 1.33056e-18)
(41.0953 10.7696 -4.52965e-19)
(41.2082 11.5723 7.01415e-19)
(41.3431 12.4285 -7.80514e-19)
(41.5137 13.3385 0)
(41.7216 14.3046 1.20198e-18)
(41.9729 15.3216 4.0726e-18)
(42.2842 16.3983 -2.19959e-18)
(42.6496 17.5379 -2.65904e-18)
(43.0856 18.7265 3.43702e-18)
(43.5974 19.9788 0)
(44.1373 21.2595 0)
(44.7317 22.5865 -4.26059e-18)
(45.4438 23.949 9.33923e-18)
(46.2833 25.4427 2.48177e-18)
(47.1333 27.0337 4.17073e-18)
(47.6614 28.3061 -9.19136e-18)
(45.2563 27.7443 6.11851e-19)
(29.6852 19.483 -1.38476e-17)
(39.5433 0.0461758 3.86353e-19)
(40.7476 0.0114661 -9.25105e-20)
(40.7562 0.31669 -4.90826e-19)
(40.8291 0.421762 1.90468e-19)
(40.8632 0.613507 0)
(40.9147 0.785779 2.82258e-19)
(40.9726 0.953808 -8.01857e-21)
(41.0189 1.14931 -2.04425e-19)
(41.0646 1.34408 3.1291e-19)
(41.1127 1.5263 0)
(41.167 1.72587 1.55985e-20)
(41.2135 1.94304 6.88336e-20)
(41.2427 2.17326 -8.75591e-20)
(41.2599 2.41147 1.58481e-20)
(41.27 2.65918 1.73925e-19)
(41.275 2.91703 -1.12512e-20)
(41.2698 3.18513 1.62724e-19)
(41.262 3.47347 -1.27541e-21)
(41.2512 3.77612 -1.59437e-20)
(41.2155 4.17273 -1.62212e-19)
(41.2015 4.59546 -2.37994e-19)
(41.2076 4.94425 8.76713e-21)
(41.184 5.27533 -8.86059e-20)
(41.207 5.67052 -4.45783e-19)
(41.2317 6.10021 0)
(41.2498 6.5786 3.34671e-19)
(41.2988 7.0856 -1.65864e-19)
(41.3485 7.61817 -3.24137e-20)
(41.4172 8.18663 -1.09891e-19)
(41.5023 8.79852 -3.15162e-19)
(41.5987 9.45927 1.03601e-18)
(41.7184 10.1631 -9.38714e-19)
(41.8697 10.9137 0)
(42.0533 11.7106 0)
(42.2675 12.5502 0)
(42.5175 13.4313 0)
(42.817 14.3533 3.14603e-18)
(43.1741 15.3317 -5.94764e-18)
(43.5839 16.353 0)
(44.0576 17.4157 5.2639e-20)
(44.585 18.5226 -3.52725e-19)
(45.1593 19.6629 -6.53734e-18)
(45.8394 20.8351 3.60481e-18)
(46.617 22.043 0)
(47.4673 23.2618 3.15993e-18)
(48.3676 24.5627 -1.13594e-17)
(49.287 26.0135 8.07863e-18)
(49.6549 27.0128 5.76683e-18)
(46.5601 25.9888 2.07661e-17)
(29.1684 17.2062 -1.55216e-17)
(39.5519 0.0608648 -3.81225e-19)
(40.9393 0.000602903 -6.1274e-19)
(40.9812 0.303402 4.88756e-21)
(41.0605 0.389072 -1.91689e-19)
(41.11 0.624563 1.21759e-19)
(41.1659 0.820182 -4.78971e-21)
(41.2224 1.04127 1.18223e-19)
(41.2677 1.24457 2.05243e-19)
(41.3092 1.4652 8.86799e-20)
(41.3203 1.71414 -4.62513e-21)
(41.325 1.95408 -1.46005e-20)
(41.3321 2.19101 -9.38563e-20)
(41.3602 2.42861 7.36431e-20)
(41.3825 2.6764 0)
(41.3987 2.93379 0)
(41.4129 3.20163 -7.9147e-21)
(41.4209 3.48044 -1.66612e-19)
(41.43 3.77812 0)
(41.4498 4.08494 -2.72854e-20)
(41.4871 4.32235 2.11861e-19)
(41.5495 4.58582 2.12544e-19)
(41.5705 4.9645 -2.61757e-19)
(41.5715 5.40551 0)
(41.5666 5.83285 3.41671e-19)
(41.6413 6.28999 1.52329e-19)
(41.7214 6.76092 -1.69932e-19)
(41.7671 7.26202 0)
(41.8551 7.80102 0)
(41.9623 8.38064 1.69393e-19)
(42.0973 8.98807 6.53611e-19)
(42.2656 9.62796 -1.7003e-18)
(42.4614 10.3035 7.24142e-19)
(42.6867 11.016 1.03097e-18)
(42.9444 11.7702 -2.44571e-18)
(43.2334 12.5674 3.95705e-18)
(43.5686 13.4053 1.21047e-18)
(43.9513 14.2838 -2.16922e-18)
(44.3859 15.1903 2.73096e-18)
(44.883 16.139 -4.03134e-18)
(45.4341 17.1209 6.71979e-20)
(46.0741 18.1294 -4.29134e-19)
(46.788 19.1746 3.36855e-18)
(47.5201 20.2193 4.75063e-18)
(48.3042 21.2776 -5.27745e-18)
(49.2141 22.3407 3.23392e-18)
(50.2407 23.5122 0)
(51.1826 24.8036 4.80206e-18)
(51.2299 25.41 6.95408e-18)
(47.1663 23.9351 -1.45595e-17)
(27.983 14.6981 -4.48362e-18)
(39.5907 0.0768247 1.98469e-19)
(41.1269 0.0487597 2.56243e-19)
(41.1475 0.453739 1.7608e-21)
(41.214 0.529866 -6.03961e-20)
(41.2455 0.775625 -1.79227e-19)
(41.2955 0.961052 3.78519e-20)
(41.3473 1.14507 -1.30961e-19)
(41.3889 1.35874 -5.38167e-21)
(41.434 1.56648 -8.48369e-20)
(41.4903 1.75665 4.53124e-20)
(41.5393 1.97216 -6.19089e-20)
(41.5945 2.20006 1.45347e-20)
(41.6275 2.43814 1.59893e-19)
(41.6564 2.68504 2.57755e-21)
(41.6788 2.93914 1.37362e-19)
(41.7011 3.20252 -1.99176e-19)
(41.7197 3.47451 1.42775e-19)
(41.7409 3.7623 0)
(41.7666 4.07893 0)
(41.7819 4.47493 0)
(41.8091 4.8994 8.21497e-20)
(41.8704 5.2356 2.29764e-19)
(41.9101 5.56994 4.57443e-19)
(41.9911 5.96807 1.50048e-19)
(42.0817 6.39031 0)
(42.176 6.85138 0)
(42.3051 7.34044 -7.35088e-19)
(42.449 7.85334 4.29903e-19)
(42.6236 8.39669 -1.27763e-19)
(42.8171 8.98248 1.52563e-19)
(43.0259 9.61217 8.84887e-20)
(43.2631 10.2719 1.24999e-18)
(43.5393 10.9684 -6.5036e-19)
(43.8581 11.6967 2.40069e-18)
(44.2162 12.4583 -1.72545e-18)
(44.6154 13.2437 -9.06845e-19)
(45.0682 14.0544 2.20876e-19)
(45.5815 14.9064 1.75331e-18)
(46.1556 15.7761 1.84281e-18)
(46.8027 16.6708 2.63105e-18)
(47.4844 17.5808 -4.13774e-19)
(48.2113 18.4948 4.41278e-18)
(49.0482 19.4199 -4.90848e-18)
(49.9812 20.3549 0)
(50.9655 21.2791 0)
(51.9856 22.2978 0)
(52.7702 23.2829 0)
(52.5149 23.6698 0)
(47.2665 21.7187 -8.4327e-18)
(26.0491 12.0193 1.38068e-17)
(39.6531 0.0994374 -1.99054e-19)
(41.3504 0.0155498 0)
(41.4192 0.431786 0)
(41.49 0.495485 6.0832e-20)
(41.5353 0.785555 5.15551e-20)
(41.5882 0.989929 -3.51506e-20)
(41.6417 1.2336 1.46103e-20)
(41.6853 1.45658 5.3988e-21)
(41.7259 1.7003 -9.1441e-20)
(41.7354 1.96971 -5.05014e-20)
(41.7522 2.21708 7.16096e-20)
(41.7671 2.46705 -2.11665e-19)
(41.8082 2.71406 -3.0313e-19)
(41.8468 2.96723 0)
(41.8818 3.22724 -1.49778e-19)
(41.9189 3.49645 2.34577e-19)
(41.9553 3.7728 5.96622e-21)
(41.9974 4.0643 5.08162e-19)
(42.0351 4.34615 -6.97707e-19)
(42.1072 4.58832 0)
(42.2189 4.8609 0)
(42.2971 5.21942 -6.27787e-19)
(42.3492 5.64163 1.86918e-19)
(42.4106 6.04185 9.75257e-19)
(42.5554 6.47581 2.85103e-19)
(42.7096 6.92927 -1.06957e-18)
(42.8441 7.40996 1.67209e-18)
(43.0202 7.92207 -1.69687e-18)
(43.2213 8.46872 9.50671e-19)
(43.462 9.03151 -7.98563e-19)
(43.7403 9.61598 4.68731e-19)
(44.0531 10.233 -1.57274e-18)
(44.4038 10.8738 9.11512e-19)
(44.7879 11.544 -1.69824e-18)
(45.204 12.2401 0)
(45.6701 12.9665 -1.474e-18)
(46.1885 13.7188 -1.5605e-18)
(46.7624 14.4811 2.45882e-19)
(47.3911 15.269 2.98353e-18)
(48.0593 16.0596 -3.03412e-18)
(48.8235 16.8599 -3.90447e-19)
(49.6515 17.6746 -4.95846e-18)
(50.487 18.4674 1.15512e-17)
(51.3598 19.2465 6.09501e-19)
(52.3602 20.0197 7.2502e-19)
(53.4942 20.9612 -4.46668e-18)
(54.0988 21.6129 0)
(53.2368 21.7369 7.68203e-18)
(46.438 19.2569 -4.06185e-18)
(23.3085 9.27621 0)
(39.7309 0.126784 3.74678e-23)
(41.5914 0.0753275 -1.46533e-22)
(41.6205 0.554871 5.28923e-20)
(41.6643 0.635738 0)
(41.6958 0.931849 1.25788e-21)
(41.744 1.12934 7.34564e-20)
(41.793 1.33081 0)
(41.8345 1.56584 -1.27424e-19)
(41.8834 1.77763 1.00415e-19)
(41.9468 1.97662 -9.67203e-21)
(41.9982 2.20222 -2.6657e-19)
(42.0608 2.4322 3.42662e-20)
(42.1051 2.67598 1.66181e-19)
(42.1477 2.92266 0)
(42.1886 3.17461 0)
(42.2319 3.43446 0)
(42.2778 3.69907 4.71547e-19)
(42.3373 3.9776 -5.1272e-19)
(42.4169 4.29798 1.14017e-18)
(42.4813 4.66149 -1.21711e-19)
(42.5453 5.05226 2.87511e-19)
(42.659 5.3826 4.62458e-19)
(42.771 5.6995 -1.77249e-18)
(42.9085 6.08397 -1.58955e-18)
(43.0711 6.48143 0)
(43.251 6.90593 9.78096e-19)
(43.4542 7.35001 -2.31666e-18)
(43.6875 7.81635 1.49466e-18)
(43.9601 8.3064 -7.86343e-19)
(44.2521 8.83839 4.60248e-19)
(44.5634 9.40655 -6.20501e-19)
(44.9013 9.99226 2.25061e-18)
(45.2814 10.6068 -2.57634e-18)
(45.7081 11.2413 3.357e-18)
(46.1754 11.8973 1.39132e-18)
(46.6829 12.5576 -3.25175e-18)
(47.2402 13.2299 3.98178e-18)
(47.8508 13.9251 -2.52147e-18)
(48.5227 14.6162 3.29754e-20)
(49.2709 15.3225 0)
(50.0307 16.0212 4.13014e-18)
(50.8276 16.702 2.73127e-18)
(51.727 17.3768 2.56104e-19)
(52.7278 18.0464 -7.64763e-18)
(53.7601 18.7093 -2.76318e-19)
(54.7593 19.47 -5.1564e-18)
(54.9828 19.8235 0)
(53.4607 19.6632 8.11613e-18)
(44.9146 16.7182 -1.35702e-17)
(19.7321 6.55775 0)
(39.8354 0.138295 0)
(41.8569 0.0438151 0)
(41.934 0.533531 7.26475e-21)
(41.9935 0.59798 3.77543e-21)
(42.0332 0.935458 -1.01317e-19)
(42.083 1.14763 -7.50065e-20)
(42.1352 1.41433 0)
(42.1762 1.65348 1.27716e-19)
(42.2131 1.91608 -2.37597e-19)
(42.2279 2.19234 0)
(42.2542 2.44165 4.50839e-19)
(42.2833 2.69261 -5.84977e-20)
(42.3371 2.93717 3.30495e-20)
(42.3916 3.18315 -3.68578e-20)
(42.4483 3.43404 0)
(42.5088 3.69136 0)
(42.5711 3.95363 -2.39295e-19)
(42.6385 4.21874 -3.71964e-19)
(42.716 4.48352 9.77682e-20)
(42.8225 4.72544 -7.62615e-20)
(42.982 4.97967 1.79429e-19)
(43.1202 5.29838 -1.05288e-19)
(43.2255 5.68675 9.89419e-19)
(43.3657 6.03814 4.3479e-19)
(43.576 6.42585 -6.96165e-19)
(43.7923 6.83368 -1.09307e-18)
(44.0106 7.26862 8.15232e-19)
(44.2675 7.73247 1.17844e-18)
(44.5563 8.22493 0)
(44.887 8.72008 0)
(45.2548 9.22633 0)
(45.6632 9.76078 -1.57178e-18)
(46.1107 10.3078 -1.06999e-18)
(46.5883 10.8717 -1.14511e-18)
(47.0915 11.4449 1.59108e-18)
(47.642 12.0395 1.92398e-18)
(48.242 12.6452 -9.45952e-19)
(48.8996 13.251 2.69602e-18)
(49.5989 13.8688 -1.56494e-18)
(50.3158 14.4658 -2.03066e-18)
(51.1257 15.0601 -2.45991e-18)
(51.9865 15.6509 2.74294e-18)
(52.8505 16.2041 0)
(53.7276 16.7278 4.2496e-18)
(54.7792 17.2977 -2.38496e-18)
(55.6167 17.8184 2.79278e-18)
(55.6681 17.9657 0)
(52.9836 17.4753 -4.15786e-18)
(42.151 13.9438 2.41949e-18)
(15.2194 3.87525 0)
(39.9558 0.179333 -6.84547e-20)
(42.1517 0.125045 0)
(42.1782 0.648437 -1.59847e-19)
(42.1964 0.735678 1.20311e-19)
(42.2247 1.08227 9.91898e-20)
(42.2669 1.28222 -4.89675e-21)
(42.3122 1.49618 5.45003e-21)
(42.3494 1.73833 0)
(42.3994 1.95007 2.2897e-19)
(42.4632 2.15803 -1.80087e-19)
(42.5161 2.38538 -1.83952e-19)
(42.5846 2.61238 2.45363e-19)
(42.6359 2.8496 -1.7374e-19)
(42.6886 3.08648 -4.94133e-20)
(42.7473 3.32602 2.89791e-20)
(42.8154 3.57112 0)
(42.8938 3.82175 -3.86623e-19)
(42.9921 4.08257 4.72784e-19)
(43.1045 4.36528 2.11157e-20)
(43.2204 4.67572 -8.47989e-21)
(43.329 5.01695 1.0244e-19)
(43.4874 5.31875 0)
(43.6717 5.59651 1.69427e-19)
(43.8591 5.94635 6.58447e-19)
(44.0965 6.30271 8.97636e-19)
(44.3594 6.6764 1.09898e-18)
(44.6341 7.05989 0)
(44.9505 7.45606 -8.2024e-19)
(45.3023 7.87113 -1.68989e-18)
(45.6747 8.32729 9.62221e-19)
(46.0662 8.81307 -2.03943e-18)
(46.4795 9.30639 -1.00386e-18)
(46.9304 9.82005 1.81356e-18)
(47.4247 10.3475 -6.72545e-19)
(47.9596 10.8877 -1.60492e-18)
(48.5323 11.4205 -8.82306e-19)
(49.1485 11.9547 -1.16402e-18)
(49.8001 12.4897 0)
(50.5049 13.0067 -1.8384e-18)
(51.2821 13.5308 4.08602e-18)
(52.0525 14.0311 2.48927e-18)
(52.8516 14.4995 -2.94326e-18)
(53.7351 14.9485 3.76004e-18)
(54.7459 15.3969 -1.98413e-18)
(55.7972 15.8874 4.92147e-18)
(56.2213 16.1253 7.36016e-20)
(55.6216 16.0426 0)
(51.6318 15.107 8.57366e-18)
(38.5326 11.0735 -7.29768e-18)
(10.302 1.51102 -2.73065e-18)
(40.1486 0.232921 6.85404e-20)
(42.4908 0.119793 -1.17574e-19)
(42.5523 0.639773 9.72761e-20)
(42.5892 0.699657 -1.18181e-19)
(42.6104 1.06804 -9.2882e-20)
(42.6522 1.29015 -6.19984e-21)
(42.6943 1.5734 3.58247e-21)
(42.7254 1.8236 0)
(42.7535 2.0915 -1.79528e-19)
(42.7718 2.35896 2.93248e-19)
(42.7953 2.60339 0)
(42.8286 2.84408 -2.06635e-20)
(42.8877 3.07297 1.64078e-20)
(42.9512 3.30061 2.26276e-19)
(43.0196 3.52639 -3.50012e-19)
(43.0931 3.75137 -4.29345e-21)
(43.1718 3.97734 5.2418e-20)
(43.2676 4.20171 0)
(43.383 4.43446 -2.61938e-19)
(43.5272 4.65699 4.84979e-19)
(43.7219 4.87713 -5.94666e-20)
(43.9229 5.14761 0)
(44.0839 5.47103 0)
(44.2978 5.75971 -3.70358e-19)
(44.5637 6.08184 1.44635e-19)
(44.8374 6.42349 -1.04813e-18)
(45.123 6.79225 4.10079e-19)
(45.4449 7.19655 -2.38721e-19)
(45.8092 7.62001 8.24237e-19)
(46.208 8.03808 3.50435e-19)
(46.6428 8.45605 1.20776e-18)
(47.1175 8.8998 -1.15974e-18)
(47.6322 9.34986 7.27675e-19)
(48.1714 9.80486 -7.98493e-19)
(48.7247 10.2562 -9.58439e-19)
(49.3146 10.719 -1.05993e-18)
(49.9449 11.1828 0)
(50.6322 11.6464 2.45774e-18)
(51.3436 12.1057 -9.19507e-19)
(52.0563 12.5302 -2.20268e-18)
(52.8508 12.943 2.613e-18)
(53.6803 13.3408 -7.57126e-20)
(54.5222 13.6982 -1.96554e-18)
(55.3757 14.0414 -2.70103e-20)
(56.2075 14.3462 -2.46555e-18)
(56.3802 14.3787 -6.07309e-18)
(55.2504 14.0712 3.60595e-18)
(49.432 12.5873 0)
(33.7493 7.99524 -5.02159e-18)
(6.5123 0.000269186 9.60286e-18)
(40.3443 0.195586 2.29076e-22)
(42.7858 0.174343 1.18194e-19)
(42.8167 0.751872 -4.08594e-20)
(42.82 0.838118 -1.35764e-21)
(42.8269 1.21232 9.31205e-20)
(42.8554 1.40592 0)
(42.8892 1.63193 0)
(42.9172 1.87527 -5.64109e-21)
(42.9594 2.08858 3.09288e-19)
(43.0115 2.30156 -1.15561e-19)
(43.0594 2.51901 9.90901e-21)
(43.1273 2.73406 -2.3054e-20)
(43.1764 2.95409 1.1768e-19)
(43.2331 3.1707 -1.26682e-19)
(43.3008 3.38501 4.88555e-19)
(43.3825 3.59888 -1.07706e-19)
(43.4808 3.81638 1.31733e-19)
(43.6007 4.03376 4.01839e-20)
(43.7391 4.26337 -4.47116e-19)
(43.8908 4.50875 -3.17445e-19)
(44.0505 4.77294 6.23684e-21)
(44.2422 5.01418 -8.20875e-20)
(44.4786 5.24868 0)
(44.7176 5.53939 -4.15235e-19)
(45.0195 5.83381 6.41043e-21)
(45.3431 6.14079 1.32469e-19)
(45.6839 6.45292 1.09394e-19)
(46.0726 6.7645 2.86581e-19)
(46.4867 7.09571 0)
(46.9204 7.46445 2.07903e-19)
(47.3684 7.86694 1.1898e-18)
(47.8365 8.26579 1.11065e-18)
(48.3261 8.67725 -6.16918e-19)
(48.8488 9.09725 1.23281e-18)
(49.4107 9.52649 -9.95055e-19)
(50.0112 9.94828 -6.11426e-19)
(50.6485 10.365 0)
(51.3 10.7616 -1.64269e-18)
(51.995 11.138 -1.03655e-18)
(52.7431 11.51 1.15789e-18)
(53.4705 11.8482 -1.38404e-18)
(54.2214 12.1458 1.64145e-18)
(55.0363 12.4268 0)
(56.0786 12.7516 1.11678e-18)
(56.54 12.8557 0)
(56.2678 12.757 1.64155e-18)
(53.7399 12.0877 -3.73601e-18)
(45.7709 9.99532 2.12418e-18)
(27.8219 4.95581 0)
(3.91894 -0.460082 6.76286e-19)
(40.5571 0.248149 3.58033e-23)
(43.1807 0.151675 4.12819e-23)
(43.2281 0.698117 4.20013e-20)
(43.2459 0.778043 2.1355e-22)
(43.2493 1.17906 1.84152e-21)
(43.2754 1.40623 2.91103e-22)
(43.3005 1.70705 -3.24017e-22)
(43.3155 1.96728 8.14849e-22)
(43.3277 2.2298 -1.12886e-19)
(43.3331 2.48673 -2.35741e-21)
(43.3397 2.71786 -1.40309e-21)
(43.3603 2.93938 3.25491e-21)
(43.4085 3.14167 1.16882e-19)
(43.4649 3.33534 -1.44549e-19)
(43.5291 3.52035 -1.85435e-19)
(43.6034 3.69688 1.07439e-19)
(43.6918 3.87097 -1.27673e-19)
(43.8045 4.03873 -5.49769e-21)
(43.9474 4.21034 -6.71568e-21)
(44.1227 4.37976 0)
(44.3329 4.55936 -1.00094e-20)
(44.5757 4.77004 -6.15266e-21)
(44.7986 4.99197 6.87764e-21)
(45.0619 5.21173 0)
(45.3763 5.45773 0)
(45.7068 5.72059 3.79198e-19)
(46.0448 6.01331 0)
(46.4208 6.34952 -2.86973e-19)
(46.8368 6.70199 0)
(47.2834 7.04402 1.39701e-20)
(47.7642 7.37182 -5.3446e-19)
(48.278 7.72914 3.76473e-20)
(48.8331 8.09097 -7.67922e-19)
(49.4087 8.45292 6.80831e-20)
(49.9874 8.80553 4.45597e-19)
(50.5853 9.15571 6.89107e-19)
(51.2113 9.50267 -2.38721e-20)
(51.8885 9.85648 0)
(52.5632 10.1885 -1.6681e-20)
(53.236 10.4803 1.96621e-20)
(53.9726 10.7545 0)
(54.7272 11.0165 -2.71516e-20)
(55.5667 11.2689 -1.24787e-19)
(56.1871 11.4286 -9.44184e-19)
(56.2392 11.409 -2.05646e-20)
(55.4106 11.1188 0)
(51.5802 10.1835 0)
(40.9471 7.61759 3.01479e-19)
(19.9633 2.31327 -2.98108e-19)
(1.84393 -0.399406 6.70388e-19)
(40.8738 0.232937 9.28175e-20)
(43.5255 0.229219 1.03294e-19)
(43.5335 0.836376 5.69812e-20)
(43.5095 0.912127 6.71396e-20)
(43.4838 1.30712 7.10203e-20)
(43.4946 1.5003 -8.45932e-20)
(43.5128 1.74347 0)
(43.5217 1.99057 0)
(43.5412 2.21365 6.95583e-20)
(43.5731 2.4232 2.35646e-21)
(43.6019 2.62926 -9.19241e-20)
(43.655 2.82938 -6.83807e-21)
(43.6896 3.02422 -1.32321e-19)
(43.7305 3.20839 1.60796e-19)
(43.786 3.38485 2.13188e-19)
(43.8592 3.55235 0)
(43.9529 3.71469 0)
(44.0727 3.87249 5.49683e-21)
(44.2141 4.03657 6.71459e-21)
(44.3867 4.20274 -2.79591e-19)
(44.5895 4.35629 1.00076e-20)
(44.8206 4.51661 0)
(45.0775 4.70256 0)
(45.3722 4.90345 -7.81161e-20)
(45.7207 5.11956 -3.80723e-19)
(46.0884 5.34785 1.19101e-19)
(46.4813 5.57888 0)
(46.9232 5.80717 -3.28765e-19)
(47.3954 6.04658 0)
(47.8739 6.33053 -1.39667e-20)
(48.363 6.65851 0)
(48.8697 6.97683 0)
(49.3813 7.3025 2.03173e-19)
(49.9105 7.633 2.37143e-19)
(50.4731 7.97021 0)
(51.0729 8.30961 0)
(51.6995 8.63921 2.38613e-20)
(52.3224 8.93552 0)
(52.9878 9.21664 1.6672e-20)
(53.6712 9.48806 -6.65995e-19)
(54.3209 9.7209 7.68269e-19)
(55.0164 9.92844 6.75834e-20)
(55.838 10.16 4.35452e-20)
(56.137 10.2017 -1.10965e-18)
(56.0583 10.1324 -6.98624e-19)
(54.0588 9.72452 4.00874e-18)
(47.7818 8.47188 -1.81662e-18)
(33.7997 5.50291 -2.13426e-18)
(10.9962 0.526842 1.75342e-18)
(0.503775 -0.0953169 0)
(41.0857 0.203725 -9.24405e-20)
(43.9178 0.177106 1.27704e-19)
(43.9584 0.744553 -5.59038e-20)
(43.9601 0.843092 8.07348e-20)
(43.9441 1.27303 -7.53346e-20)
(43.9503 1.51053 8.70761e-20)
(43.9521 1.82361 6.78185e-21)
(43.9374 2.09309 -7.55021e-21)
(43.92 2.35716 -6.01836e-20)
(43.898 2.60678 -1.03916e-20)
(43.8694 2.82802 9.79995e-20)
(43.8494 3.02631 2.46944e-19)
(43.8644 3.19394 -1.55284e-19)
(43.8893 3.34475 -1.47641e-19)
(43.9278 3.47795 -6.64565e-19)
(43.9882 3.59623 3.382e-20)
(44.0683 3.70455 -3.78077e-20)
(44.1834 3.79452 3.90482e-19)
(44.3371 3.87924 6.14879e-20)
(44.5164 3.97818 2.10576e-19)
(44.7289 4.10395 0)
(44.9807 4.21861 0)
(45.2551 4.32627 0)
(45.5543 4.46781 0)
(45.913 4.62289 3.7286e-19)
(46.2902 4.80042 -9.47902e-19)
(46.6834 5.01497 0)
(47.1122 5.27517 1.01754e-18)
(47.5614 5.56811 0)
(48.0439 5.83899 0)
(48.5573 6.09048 -1.18473e-18)
(49.0963 6.37128 7.14182e-19)
(49.6671 6.66026 -1.64741e-18)
(50.2581 6.94972 4.71642e-19)
(50.8469 7.23526 0)
(51.4425 7.50387 0)
(52.0566 7.76863 8.27712e-19)
(52.707 8.0482 -2.8475e-18)
(53.3209 8.30626 0)
(53.9393 8.52234 -2.0105e-18)
(54.6157 8.73379 3.05147e-18)
(55.3922 8.97151 -3.42068e-18)
(55.8605 9.08361 1.84726e-18)
(55.8929 9.1022 -2.3102e-18)
(54.8964 8.92841 6.23885e-18)
(51.3985 8.28221 -5.52874e-18)
(42.5725 6.56904 3.66164e-18)
(25.384 3.11301 -8.16966e-18)
(6.08385 -0.11511 9.72003e-18)
(-0.182801 0.10802 -6.25981e-18)
(41.4312 0.244205 -2.32293e-19)
(44.3107 0.26751 2.36066e-20)
(44.2963 0.852375 0)
(44.2438 0.950605 -1.46753e-19)
(44.1979 1.37075 -3.71773e-19)
(44.1888 1.58204 1.22566e-20)
(44.1813 1.84931 0)
(44.1594 2.11348 0)
(44.1475 2.34315 -1.97193e-20)
(44.1401 2.561 2.19597e-20)
(44.1332 2.7634 -4.31065e-19)
(44.1454 2.95276 2.62263e-19)
(44.1434 3.1294 2.94623e-19)
(44.1452 3.2819 -3.63146e-19)
(44.155 3.4109 4.29807e-19)
(44.1826 3.5118 6.96802e-20)
(44.2405 3.60652 -7.29358e-19)
(44.3232 3.68799 -1.18486e-18)
(44.4482 3.76272 0)
(44.6263 3.80996 5.95364e-19)
(44.8458 3.84851 7.2874e-19)
(45.1111 3.92555 0)
(45.3929 4.01916 -1.0891e-18)
(45.7221 4.12018 0)
(46.1092 4.24417 0)
(46.5189 4.37944 9.45004e-19)
(46.9507 4.52555 5.78143e-19)
(47.4401 4.67218 1.41857e-18)
(47.9648 4.81971 0)
(48.4871 5.02923 0)
(49.0156 5.29157 5.57389e-19)
(49.5536 5.55234 6.96306e-19)
(50.087 5.81399 2.60974e-18)
(50.6204 6.08094 5.67907e-20)
(51.1825 6.35309 6.43967e-20)
(51.7727 6.64527 -2.81219e-18)
(52.3707 6.92761 -8.24031e-20)
(52.9537 7.17144 3.80459e-18)
(53.5857 7.39716 2.29367e-18)
(54.2091 7.631 1.31006e-18)
(54.8319 7.843 3.08411e-18)
(55.4909 8.03775 1.31793e-19)
(55.6501 8.09821 -3.85632e-18)
(55.3601 8.04934 -2.41076e-18)
(53.5916 7.83215 -6.94636e-18)
(47.8033 6.90069 7.88931e-18)
(35.1819 4.65491 -3.55532e-18)
(14.3429 0.806427 0)
(2.69036 -0.175342 0)
(-0.686035 0.0806669 1.23616e-18)
(41.7356 0.17762 7.34443e-19)
(44.7165 0.213803 2.98961e-19)
(44.7468 0.779779 -3.06704e-19)
(44.7305 0.872745 1.04525e-20)
(44.6959 1.32592 7.46268e-19)
(44.6804 1.58117 -1.31305e-20)
(44.6568 1.92075 0)
(44.6116 2.21547 -5.67501e-19)
(44.5557 2.50378 -2.05241e-20)
(44.4913 2.76103 -1.10073e-21)
(44.4073 2.99193 8.97149e-19)
(44.3217 3.18461 -4.74928e-19)
(44.2684 3.328 2.56428e-21)
(44.2314 3.43474 3.17636e-19)
(44.2116 3.51453 0)
(44.2202 3.56263 0)
(44.2719 3.58572 5.52445e-19)
(44.3593 3.59277 8.59384e-19)
(44.4772 3.59153 0)
(44.631 3.61356 -5.93478e-19)
(44.836 3.61188 -7.26298e-19)
(45.0812 3.5954 -2.35141e-19)
(45.367 3.60165 2.4832e-19)
(45.7082 3.6254 9.95179e-19)
(46.1096 3.67366 3.91542e-19)
(46.5322 3.76066 5.15932e-19)
(46.9852 3.88796 -1.75568e-18)
(47.4685 4.07773 -1.42054e-18)
(47.9672 4.31162 1.75789e-18)
(48.4829 4.52047 -2.10666e-18)
(49.0242 4.71028 0)
(49.5855 4.92673 0)
(50.1705 5.16572 8.11889e-20)
(50.782 5.41214 -2.01416e-18)
(51.3798 5.66197 2.47242e-18)
(51.9742 5.87947 4.37815e-18)
(52.5836 6.09201 -1.64438e-18)
(53.2102 6.32474 -3.9833e-18)
(53.775 6.56119 -4.59659e-18)
(54.372 6.75771 -2.71885e-18)
(55.1388 7.00705 -1.15626e-19)
(55.4509 7.12765 3.35089e-18)
(55.4584 7.13725 0)
(54.441 7.11496 2.38463e-18)
(50.5654 6.56302 2.73831e-18)
(41.7655 5.1569 3.13126e-18)
(25.7616 2.51338 1.05627e-17)
(7.41509 -0.0699669 -3.91839e-18)
(0.797315 0.0836129 0)
(-0.813714 0.109386 0)
(41.9677 0.12084 3.70934e-20)
(45.0708 0.2476 -5.52271e-19)
(45.076 0.80804 3.16181e-19)
(45.0224 0.939103 -7.3115e-19)
(44.9734 1.39113 -4.10069e-19)
(44.9447 1.61663 -2.27446e-22)
(44.913 1.93785 1.57352e-20)
(44.8642 2.22731 5.29572e-19)
(44.815 2.4865 4.08042e-20)
(44.7512 2.74075 4.86793e-20)
(44.6913 2.95922 -4.36444e-19)
(44.6279 3.15779 -6.31056e-20)
(44.5471 3.33267 -6.02518e-19)
(44.4785 3.46763 -7.10112e-19)
(44.4014 3.5634 1.1192e-19)
(44.3467 3.62239 -1.23671e-19)
(44.3186 3.63425 0)
(44.3392 3.60013 -7.31023e-19)
(44.422 3.52857 0)
(44.5652 3.45903 0)
(44.7713 3.41423 0)
(45.0308 3.36405 -4.69425e-19)
(45.3386 3.30955 1.61846e-18)
(45.6989 3.29251 -1.33855e-18)
(46.1248 3.29883 0)
(46.5746 3.32856 -5.2325e-19)
(47.0615 3.37476 -1.85876e-18)
(47.6048 3.41689 -2.96005e-18)
(48.1704 3.4843 -2.66364e-18)
(48.7541 3.63495 2.07246e-18)
(49.346 3.84636 -2.53491e-18)
(49.9409 4.07362 1.46185e-18)
(50.5116 4.29501 3.61347e-18)
(51.044 4.51223 0)
(51.6109 4.73538 2.57611e-18)
(52.2078 5.01035 -5.86629e-18)
(52.788 5.28156 -1.15132e-19)
(53.3433 5.51526 3.9405e-18)
(53.9657 5.72003 2.29683e-18)
(54.6559 5.9848 0)
(55.1343 6.17734 2.90576e-18)
(55.2255 6.20154 -3.47191e-18)
(54.7364 6.28055 8.28124e-18)
(52.4248 5.98518 0)
(46.5891 5.23591 -1.09719e-17)
(34.0601 3.43093 3.0451e-18)
(13.7828 0.419156 -3.46793e-18)
(3.34991 -0.128896 -3.8737e-18)
(-0.24402 0.111664 8.59741e-18)
(-0.839683 0.165355 4.186e-21)
(42.2659 0.151077 -5.39795e-19)
(45.5131 0.18887 6.25076e-19)
(45.5372 0.691219 -6.93298e-19)
(45.5147 0.805379 1.50264e-18)
(45.4965 1.29507 -8.86574e-19)
(45.4848 1.58158 5.88362e-20)
(45.4497 1.96622 -5.73771e-19)
(45.3858 2.32233 0)
(45.2971 2.66223 -6.87019e-19)
(45.1823 2.96271 8.28061e-19)
(45.0312 3.24554 1.9136e-21)
(44.8769 3.46724 -6.29906e-20)
(44.7019 3.62739 6.01674e-19)
(44.5491 3.72671 2.04799e-20)
(44.4168 3.76755 7.0311e-19)
(44.3184 3.76159 1.19638e-19)
(44.2632 3.717 0)
(44.2555 3.63564 7.48874e-19)
(44.2995 3.51451 1.79501e-18)
(44.3994 3.35465 0)
(44.5707 3.18997 0)
(44.8049 3.0464 0)
(45.0959 2.90342 -1.55345e-18)
(45.4646 2.79176 -3.26059e-18)