/*--------------------------------*- C++ -*----------------------------------*\
| =========                 |                                                 |
| \\      /  F ield         | OpenFOAM: The Open Source CFD Toolbox           |
|  \\    /   O peration     | Version:  v1912                                 |
|   \\  /    A nd           | Website:  www.openfoam.com                      |
|    \\/     M anipulation  |                                                 |
\*---------------------------------------------------------------------------*/
FoamFile
{
    version     2.0;
    format      ascii;
    class       volScalarField;
    location    "0.33";
    object      p;
}
// * * * * * * * * * * * * * * * * * * * * * * * * * * * * * * * * * * * * * //

dimensions      [0 2 -2 0 0 0 0];


internalField   nonuniform List<scalar> 
6600
(
185.689
181.685
179.978
178.883
178.116
177.759
177.733
177.871
178.12
178.622
179.436
180.539
181.882
183.425
185.159
187.114
189.265
191.691
194.48
197.508
200.71
204.126
207.765
211.635
215.721
219.85
224.021
228.15
232.185
235.979
239.378
242.155
244.133
245.149
245.016
243.509
240.207
234.597
226.162
214.439
198.963
179.097
154.094
123.224
85.6716
40.4471
-12.6949
-73.7967
-146.745
-225.751
183.593
180.119
178.952
177.943
177.277
176.946
176.803
176.814
177.033
177.479
178.177
179.128
180.276
181.62
183.126
184.795
186.59
188.412
190.551
192.962
195.503
198.179
200.964
203.874
206.962
210.206
213.302
216.138
218.635
220.742
222.307
223.097
222.795
221.267
218.36
213.837
207.259
198.096
185.92
170.174
150.318
125.684
95.5875
59.2778
16.0415
-35.2897
-94.7189
-162.186
-239.651
-321.735
181.167
178.099
177.506
176.63
176.084
175.815
175.66
175.618
175.77
176.167
176.769
177.568
178.476
179.531
180.768
182.178
183.815
185.477
187.034
188.733
190.563
192.512
194.532
196.55
198.42
200.309
202.096
203.563
204.479
204.767
204.273
202.961
200.333
196.194
190.395
182.669
172.655
159.792
143.65
123.587
99.1044
69.6014
34.4065
-7.14678
-55.8576
-112.598
-177.532
-249.902
-329.098
-409.407
178.624
175.903
175.823
175.049
174.643
174.373
174.167
174.125
174.254
174.561
175.027
175.662
176.419
177.225
178.111
179.071
180.163
181.518
182.793
183.993
185.185
186.384
187.504
188.479
189.234
189.776
190.035
189.875
189.041
187.407
184.783
181.288
176.103
169.283
160.568
149.586
135.966
119.219
98.9616
74.6138
45.628
11.4373
-28.4943
-74.7929
-128.085
-189.114
-258.02
-333.182
-412.374
-488.522
176.117
173.652
173.979
173.14
172.87
172.595
172.337
172.226
172.287
172.463
172.713
173.04
173.496
174.06
174.688
175.334
175.946
176.557
177.217
177.835
178.452
178.956
179.202
179.197
178.685
177.778
176.432
174.513
171.82
168.189
163.417
157.324
149.616
140.064
128.36
114.107
96.9917
76.5727
52.2951
23.8005
-9.30402
-47.5463
-91.4756
-141.54
-198.132
-261.913
-332.955
-409.299
-487.161
-557.527
173.793
171.329
171.992
171.04
170.782
170.461
170.122
169.948
169.892
169.869
169.926
170.002
170.063
170.124
170.232
170.344
170.485
170.593
170.579
170.415
170.154
169.71
168.873
167.68
166.176
163.914
160.919
157.112
152.423
146.681
139.675
131.119
120.807
108.482
93.8195
76.436
55.9441
31.9949
4.25193
-27.6567
-64.181
-105.688
-152.518
-205.045
-263.521
-328.43
-399.93
-476.032
-551.198
-613.88
171.459
169.054
169.813
168.567
168.341
167.982
167.594
167.269
166.974
166.669
166.404
166.176
165.936
165.628
165.249
164.729
164.078
163.389
162.605
161.608
160.356
158.789
156.829
154.308
151.297
147.546
142.995
137.471
130.848
122.977
113.646
102.683
89.8308
74.7855
57.2622
36.9503
13.5635
-13.2662
-43.9193
-78.6051
-117.589
-161.214
-209.772
-263.461
-322.458
-387.127
-457.63
-532.03
-602.969
-656.131
168.927
166.617
167.496
165.909
165.702
165.228
164.765
164.311
163.835
163.295
162.664
161.938
161.138
160.262
159.32
158.27
156.97
155.443
153.699
151.658
149.278
146.394
142.982
139.039
134.504
129.217
122.978
115.68
107.167
97.2598
85.7984
72.5465
57.2713
39.7372
19.6964
-3.10196
-28.9665
-58.1325
-90.8088
-127.299
-167.867
-212.629
-261.718
-315.347
-373.696
-437.106
-505.288
-576.127
-641.569
-683.943
166.194
164.115
164.754
163.273
163.05
162.323
161.661
160.963
160.192
159.364
158.471
157.434
156.193
154.704
152.985
151.072
148.955
146.586
143.848
140.724
137.119
133
128.276
122.794
116.523
109.484
101.517
92.4321
82.0664
70.1908
56.6421
41.2289
23.7905
4.11343
-18.0123
-42.8155
-70.4507
-101.174
-135.232
-172.727
-213.792
-258.599
-307.241
-359.776
-416.37
-477.45
-542.609
-608.899
-667.563
-699.06
163.563
161.827
161.855
160.453
160.141
159.261
158.398
157.471
156.4
155.154
153.721
152.132
150.358
148.367
146.097
143.441
140.407
137.001
133.136
128.82
123.963
118.468
112.28
105.399
97.6851
89.0062
79.2639
68.347
56.1067
42.4042
27.0062
9.75601
-9.47934
-30.8896
-54.6179
-80.8156
-109.704
-141.39
-175.963
-213.631
-254.502
-298.55
-345.805
-396.358
-450.306
-508.007
-569.41
-630.636
-682.125
-704.372
160.308
159.044
158.974
157.597
157.083
155.894
154.805
153.592
152.177
150.555
148.708
146.557
144.078
141.274
138.181
134.757
130.876
126.538
121.64
116.1
110.028
103.36
95.8994
87.5791
78.271
68.0328
56.6998
44.0426
30.0439
14.5908
-2.46036
-21.2272
-41.8677
-64.5426
-89.3883
-116.52
-145.966
-177.886
-212.419
-249.557
-289.34
-331.826
-376.99
-424.798
-475.341
-528.935
-585.382
-641.389
-687.452
-703.339
157.358
155.92
155.81
154.401
153.795
152.482
151.146
149.564
147.732
145.591
143.143
140.398
137.342
133.88
129.939
125.56
120.699
115.311
109.371
102.783
95.4556
87.3876
78.5798
68.9463
58.3828
46.758
33.9325
19.8891
4.45672
-12.4058
-30.7648
-50.7303
-72.4472
-96.0314
-121.528
-149.013
-178.615
-210.334
-244.149
-280.142
-318.32
-358.627
-401.021
-445.422
-491.717
-540.462
-590.703
-639.873
-679.522
-694.046
153.618
152.86
152.697
151.241
150.48
148.937
147.426
145.535
143.268
140.688
137.71
134.278
130.391
126.101
121.358
116.074
110.25
103.841
96.7649
89.083
80.754
71.5827
61.5551
50.6248
38.6421
25.7431
11.6537
-3.60478
-20.1761
-38.133
-57.5508
-78.4532
-100.916
-125.009
-150.82
-178.352
-207.529
-238.42
-271.097
-305.493
-341.506
-379.077
-418.144
-458.579
-500.255
-543.085
-585.315
-624.039
-651.827
-665.092
150.29
149.522
149.519
148.278
147.427
145.664
143.866
141.662
139.042
135.949
132.445
128.495
123.993
118.896
113.251
107.025
100.168
92.7443
84.66
75.795
66.1922
55.857
44.6303
32.5471
19.6342
5.54135
-9.64385
-25.9555
-43.4679
-62.2526
-82.3526
-103.884
-126.843
-151.212
-176.947
-204.072
-232.644
-262.582
-293.745
-326.072
-359.557
-394.075
-429.397
-465.194
-501.79
-537.762
-570.746
-595.94
-607.398
-616.878
147.41
146.514
146.43
145.25
144.48
142.714
140.783
138.308
135.368
131.928
127.875
123.24
118.087
112.326
105.907
98.8485
91.088
82.5883
73.4223
63.5562
52.8885
41.3548
29.0806
15.8347
1.63876
-13.4981
-29.6128
-46.8314
-65.1477
-84.6454
-105.33
-127.214
-150.307
-174.614
-200.155
-226.812
-254.393
-282.872
-312.302
-342.58
-373.425
-404.638
-436
-467.353
-497.924
-526.497
-550.974
-567.273
-571.535
-574.694
144.975
144.475
144.158
142.795
141.97
140.19
138.245
135.636
132.429
128.653
124.278
119.197
113.398
106.928
99.7441
91.829
83.2128
73.8289
63.601
52.5784
40.856
28.2611
14.7491
0.601537
-14.4598
-30.5891
-47.6891
-65.7453
-84.8092
-104.846
-125.924
-148.096
-171.318
-195.52
-220.542
-246.372
-273.062
-300.41
-328.125
-356.067
-384.257
-412.503
-440.309
-467.497
-492.895
-515.008
-531.824
-541.599
-549.204
-549.907
142.28
142.175
142.364
141.286
140.378
138.587
136.579
133.884
130.559
126.509
121.716
116.227
109.963
102.892
95.0523
86.3875
76.878
66.6032
55.5183
43.5629
30.7369
17.1964
2.84987
-12.614
-28.8973
-45.8655
-63.6753
-82.4339
-102.119
-122.771
-144.306
-166.668
-189.858
-213.85
-238.619
-263.963
-289.599
-315.475
-341.557
-367.736
-393.758
-419.307
-444.233
-467.705
-488.904
-506.439
-518.16
-522.717
-527.509
-529.154
139.943
140.105
140.52
139.973
139.518
137.98
136.068
133.355
129.874
125.665
120.649
114.772
108.064
100.437
91.9096
82.5425
72.2785
61.1173
49.0876
36.2224
22.5023
7.79703
-7.61793
-23.6461
-40.6698
-58.6575
-77.345
-96.8245
-117.133
-138.201
-160.074
-182.766
-206.188
-230.219
-254.616
-279.287
-304.309
-329.424
-354.333
-378.832
-403.055
-426.82
-449.191
-469.937
-487.993
-500.796
-506.94
-512.239
-513.202
-515.224
137.926
138.748
139.301
139.076
139.125
138.079
136.457
133.953
130.666
126.375
121.176
115.004
107.888
99.833
90.744
80.6648
69.6446
57.6946
44.8253
31.034
16.438
1.09263
-15.3279
-32.7647
-50.708
-69.2653
-88.696
-108.885
-129.79
-151.449
-173.803
-196.76
-220.309
-244.401
-268.993
-293.774
-318.31
-342.594
-366.548
-390.204
-413.372
-435.063
-455.285
-473.688
-488.838
-498.501
-501.833
-504.043
-505.405
-506.397
135.244
136.996
138.475
139.011
139.426
139.026
138.064
135.847
132.838
128.865
123.684
117.32
109.782
101.2
91.5856
80.8818
69.1365
56.3741
42.6351
27.9804
12.3583
-4.21288
-21.2742
-39.0948
-58.0008
-77.6373
-97.8531
-118.754
-140.331
-162.516
-185.305
-208.753
-232.797
-257.3
-282.049
-306.838
-331.537
-355.831
-379.632
-402.686
-424.228
-444.274
-462.628
-478.433
-489.953
-495.821
-500.327
-499.895
-501.08
-501.264
131.614
134.402
136.943
138.903
140.385
140.762
140.605
139.099
136.427
132.716
127.772
121.554
113.952
104.982
94.7791
83.4256
70.9542
57.4314
42.8814
27.3071
10.8774
-6.39141
-24.8725
-43.9518
-63.5253
-83.8955
-104.972
-126.637
-148.895
-171.761
-195.194
-219.142
-243.606
-268.55
-293.963
-319.675
-345.02
-369.602
-393.255
-415.781
-436.584
-455.164
-471.324
-483.233
-489.462
-493.992
-495.961
-497.172
-498.152
-498.232
127.067
131.506
134.782
137.803
140.927
142.788
143.782
143.418
141.625
138.308
133.608
127.534
119.997
110.926
100.365
88.4379
75.2231
60.8278
45.348
28.8372
11.2717
-7.14292
-26.0978
-46.0516
-66.8964
-88.2039
-110.114
-132.624
-155.687
-179.23
-203.262
-227.84
-253.024
-278.763
-304.919
-331.356
-357.849
-383.701
-408.409
-430.796
-449.895
-466.427
-479.357
-487.309
-490.384
-492.449
-494.297
-496.129
-497.147
-497.296
120.309
127.153
131.738
136.215
140.876
144.372
146.862
147.945
147.543
145.267
141.286
135.55
128.106
118.967
108.152
95.7737
81.957
66.7933
50.3949
32.9109
14.4878
-5.07865
-25.5952
-46.668
-68.3185
-90.6927
-113.588
-136.949
-160.824
-185.235
-210.085
-235.367
-261.143
-287.517
-314.59
-342.427
-370.822
-398.81
-424.669
-447.034
-465.595
-478.913
-486.817
-490.469
-493.559
-494.054
-495.519
-496.834
-497.541
-497.647
110.769
120.255
126.138
132.982
139.849
145.601
150.187
153.128
154.123
153.11
150.109
145.016
137.91
128.871
117.938
105.198
90.7898
74.8462
57.5012
38.8771
19.1531
-1.24785
-22.6735
-44.9889
-67.9654
-91.4259
-115.341
-139.742
-164.531
-189.691
-215.304
-241.334
-267.889
-295.14
-323.118
-352.03
-382.158
-412.962
-442.288
-466.974
-484.456
-492.848
-493.538
-495.92
-497.025
-497.796
-498.209
-498.448
-498.581
-498.499
98.4192
110.919
118.288
127.845
136.903
145.002
152.054
157.273
160.501
161.437
159.87
155.86
149.441
140.635
129.661
116.638
101.742
85.1303
66.9456
47.3903
26.5055
4.32586
-18.4495
-41.8251
-65.9879
-90.715
-115.858
-141.269
-166.974
-193.021
-219.415
-246.259
-273.453
-301.162
-329.924
-359.942
-392.077
-426.268
-459.967
-488.167
-505.973
-509.156
-505.563
-502.959
-503.228
-502.72
-501.519
-500.575
-500.069
-499.748
83.2063
98.8266
106.476
119.345
131.803
142.924
153.14
161.154
166.943
169.903
170.103
167.514
162.047
153.839
143.038
129.821
114.449
97.1265
78.0002
57.2288
35.3464
12.2009
-12.0798
-37.2109
-62.7966
-88.7564
-115.047
-141.652
-168.441
-195.271
-222.326
-249.737
-277.641
-306.188
-335.294
-365.555
-398.421
-435.346
-474.763
-509.673
-526.58
-525.085
-520.633
-513.815
-511.315
-508.578
-505.811
-503.525
-502.283
-501.753
64.2636
84.429
92.5807
107.719
122.527
137.026
150.868
162.59
171.982
178.12
180.663
179.808
175.671
168.349
157.965
144.762
129.064
111.123
91.2067
69.1876
45.4237
20.8309
-4.76834
-31.2992
-58.3865
-85.8271
-113.477
-141.262
-169.101
-196.944
-224.6
-252.369
-280.712
-309.42
-338.89
-368.98
-401.487
-440.46
-485.606
-525.256
-542.789
-540.89
-531.478
-526.163
-521.476
-516.947
-512.779
-509.264
-506.858
-505.277
42.1471
66.7907
74.8048
93.006
110.329
128.487
146.522
162.435
175.47
185.088
190.982
192.493
189.945
183.635
173.867
160.86
144.985
126.353
105.528
82.5128
57.5606
31.1895
3.71818
-24.4386
-53.1444
-82.153
-111.232
-140.278
-169.227
-198.077
-226.527
-254.343
-282.399
-311.521
-340.568
-370.275
-401.965
-439.504
-484.648
-525.267
-545.144
-552.32
-544.586
-542.906
-540.229
-534.746
-528.032
-522.199
-518.893
-516.969
15.1545
48.2475
54.4502
74.1919
93.24
114.892
137.348
158.961
177.17
190.863
200.149
204.541
204.147
199.376
190.505
178.156
162.274
143.235
120.985
96.6332
70.3147
42.1953
12.9122
-16.9516
-47.2907
-78.0721
-108.798
-139.184
-169.148
-199.134
-229.001
-256.166
-283.926
-312.242
-340.065
-369.341
-401.266
-438.623
-479.59
-508.19
-530.992
-544.089
-555.775
-564.425
-568.568
-564.595
-555.497
-546.748
-541.484
-538.948
-24.6217
20.1422
33.4978
52.7803
73.3067
98.8519
125.66
152.083
175.426
194.192
207.79
215.577
217.554
214.566
207.247
195.624
179.302
159.324
136.243
110.806
82.6405
53.0941
21.9846
-9.58729
-41.6689
-74.2554
-106.998
-138.475
-169.666
-200.717
-230.909
-259.233
-286.733
-313.03
-338.382
-362.704
-388.161
-421.977
-455.496
-477.267
-506.755
-536.587
-566.931
-592.013
-606.574
-605.789
-595.149
-582.905
-574.87
-571.548
70.5577
65.946
63.6567
62.1711
61.1094
60.2218
59.329
58.3913
57.4863
56.6819
55.9181
55.0593
54.0763
52.9787
51.8051
50.5682
49.2726
47.9127
46.4565
44.9225
43.1449
41.1207
39.2795
37.4405
35.0562
32.2903
29.3642
26.1954
22.6131
18.4302
13.5813
7.94552
1.32263
-6.59491
-16.1415
-27.5714
-41.2939
-57.8241
-77.5851
-101.176
-129.202
-162.325
-201.363
-247.27
-300.674
-362.558
-433.671
-512.884
-607.885
-711.057
67.3706
62.5086
60.6034
58.8146
57.2546
55.9555
54.7273
53.5358
52.3483
51.1745
49.9908
48.7449
47.3445
45.7965
44.0789
42.2491
40.2732
38.1551
35.8394
33.4094
30.7413
27.6371
24.4072
21.2434
17.7184
13.4677
8.76631
3.68324
-1.9507
-8.34845
-15.6497
-24.023
-33.6845
-44.8669
-57.9732
-73.3839
-91.4252
-112.62
-137.477
-166.579
-200.643
-240.299
-286.229
-339.671
-401.217
-471.694
-551.876
-640.216
-742.414
-854.033
62.8683
57.7666
56.3066
54.3173
52.5075
50.8529
49.2822
47.7547
46.2032
44.5964
42.8912
41.0998
39.157
37.0502
34.788
32.3095
29.6045
26.6879
23.4759
20.0264
16.3045
12.1368
7.65876
3.00346
-2.04809
-7.85186
-14.2849
-21.3318
-29.1678
-38.002
-47.9484
-59.2185
-72.1111
-86.8736
-103.821
-123.379
-145.947
-172.09
-202.319
-237.236
-277.509
-323.863
-376.818
-437.644
-506.858
-585.46
-673.774
-770.505
-876.764
-989.278
57.5859
52.1544
51.0931
48.6979
46.7348
44.9036
43.0173
41.0899
39.0866
36.9728
34.7188
32.2817
29.6761
26.8704
23.8738
20.6152
17.09
13.2897
9.16058
4.66466
-0.115466
-5.44221
-11.2892
-17.4537
-24.103
-31.6868
-40.0879
-49.2489
-59.4198
-70.7831
-83.5176
-97.8457
-114.078
-132.504
-153.52
-177.555
-204.837
-236.132
-271.833
-312.544
-359.009
-411.885
-471.702
-539.392
-615.635
-701.436
-796.803
-899.759
-1008.22
-1118.26
51.6743
45.9164
45.2057
42.3559
40.2757
38.1876
36.0163
33.7097
31.282
28.7004
25.9295
22.8999
19.62
16.0877
12.2229
8.05229
3.52988
-1.37057
-6.64023
-12.3859
-18.4364
-24.8463
-32.0351
-39.9441
-48.5546
-58.0131
-68.4044
-79.7636
-92.3787
-106.434
-122.122
-139.69
-159.458
-181.735
-206.834
-235.24
-267.368
-303.67
-344.775
-391.195
-443.521
-502.504
-568.642
-642.41
-724.479
-815.928
-916.702
-1024.1
-1134.01
-1240.65
45.1612
39.2235
38.8761
35.3819
33.3674
31.0246
28.4794
25.8104
22.9918
19.9406
16.6254
13.0174
9.07498
4.76947
0.117419
-4.95019
-10.4543
-16.4315
-22.8602
-29.8179
-37.4278
-45.52
-54.3263
-63.8309
-74.3316
-86.0423
-98.7594
-112.556
-127.783
-144.729
-163.547
-184.447
-207.751
-233.791
-262.979
-295.755
-332.59
-373.875
-420.016
-471.646
-529.272
-593.462
-664.769
-743.579
-830.343
-925.913
-1030.29
-1140.89
-1251.75
-1354.09
38.0721
31.9309
31.8481
27.8673
25.904
23.2386
20.3859
17.3845
14.1774
10.6484
6.79121
2.56838
-2.06506
-7.16033
-12.6842
-18.7207
-25.2901
-32.4125
-40.1118
-48.4293
-57.381
-67.0671
-77.6841
-89.281
-101.809
-115.521
-130.536
-146.89
-164.854
-184.701
-206.661
-231.01
-258.018
-287.977
-321.231
-358.157
-399.193
-444.862
-495.624
-551.837
-614.007
-682.632
-758.051
-840.512
-930.438
-1028.69
-1135.57
-1248.29
-1358.97
-1455.12
30.2371
24.3787
24.1769
19.8565
18.0255
15.001
11.9071
8.5183
4.8069
0.721902
-3.78654
-8.72795
-14.1018
-19.96
-26.4088
-33.3985
-40.9831
-49.222
-58.1739
-67.9888
-78.6402
-90.1361
-102.549
-115.914
-130.515
-146.512
-163.953
-183.014
-203.905
-226.792
-251.813
-279.322
-309.697
-343.189
-380.114
-420.924
-466.004
-515.633
-570.219
-630.242
-696.034
-767.966
-846.362
-931.451
-1023.39
-1122.9
-1230.63
-1344.09
-1453.24
-1540.82
21.9825
16.8799
16.1386
11.9894
9.82768
6.47699
3.01425
-0.810914
-5.05427
-9.76673
-14.9443
-20.6689
-26.9718
-33.8258
-41.3157
-49.4463
-58.2518
-67.7755
-78.0492
-89.1469
-101.247
-114.37
-128.708
-144.248
-160.971
-179.109
-198.844
-220.356
-243.851
-269.528
-297.633
-328.375
-361.989
-398.845
-439.277
-483.452
-531.75
-584.662
-642.426
-705.349
-773.811
-848.092
-928.378
-1014.81
-1107.64
-1207.48
-1314.88
-1427.1
-1532.17
-1608
13.7874
9.36832
8.19381
4.2114
1.76363
-1.94367
-5.82489
-10.1883
-15.0926
-20.5097
-26.5063
-33.0413
-40.1972
-48.0279
-56.5542
-65.8496
-75.9642
-86.9369
-98.834
-111.631
-125.406
-140.288
-156.328
-173.699
-192.563
-212.996
-235.136
-259.152
-285.266
-313.621
-344.354
-377.785
-414.266
-453.946
-497.079
-544.131
-595.262
-650.662
-710.769
-775.819
-846.04
-921.684
-1002.92
-1089.85
-1182.55
-1281.47
-1386.64
-1495.25
-1594.92
-1657.76
5.34878
1.55371
0.443536
-3.49549
-6.30293
-10.3321
-14.6682
-19.5693
-25.0375
-31.1531
-37.8929
-45.3689
-53.5591
-62.4874
-72.1686
-82.6813
-94.0586
-106.348
-119.626
-134.044
-149.593
-166.34
-184.417
-203.821
-224.728
-247.323
-271.669
-297.922
-326.289
-357.032
-390.4
-426.47
-465.355
-507.455
-553.054
-602.234
-655.385
-712.768
-774.43
-840.707
-911.766
-987.762
-1068.86
-1155.16
-1246.78
-1344.06
-1446.33
-1549.9
-1642.03
-1692.1
-2.36954
-6.08188
-7.1686
-11.0414
-13.9849
-18.3415
-23.0791
-28.458
-34.5234
-41.3414
-48.8798
-57.1368
-66.2157
-76.1803
-87.0494
-98.8604
-111.647
-125.461
-140.312
-156.239
-173.416
-191.866
-211.743
-233.212
-256.236
-280.922
-307.458
-335.995
-366.69
-399.659
-435.037
-473.168
-514.321
-558.472
-605.8
-656.653
-711.117
-769.469
-832.044
-898.814
-969.942
-1045.59
-1125.86
-1210.73
-1300.18
-1394.38
-1493
-1590.95
-1674.73
-1713.44
-10.2204
-13.1864
-14.1958
-17.9955
-21.1387
-25.7334
-30.8198
-36.6479
-43.2831
-50.7112
-59.0159
-68.1861
-78.2355
-89.1579
-101.05
-113.965
-127.944
-143.046
-159.399
-177.01
-195.902
-216.195
-237.889
-261.104
-286.04
-312.789
-341.377
-371.905
-404.54
-439.507
-476.978
-516.949
-559.562
-605.188
-653.995
-706.073
-761.642
-820.716
-883.343
-949.857
-1020.3
-1094.66
-1173.04
-1255.58
-1342.32
-1433.33
-1527.71
-1619.85
-1695.24
-1723.98
-16.7856
-18.9766
-20.2827
-23.901
-27.268
-32.1325
-37.5807
-43.8701
-50.977
-59.0252
-67.9157
-77.7859
-88.6544
-100.594
-113.581
-127.668
-142.903
-159.296
-176.879
-195.816
-216.193
-238.026
-261.509
-286.622
-313.369
-341.897
-372.333
-404.774
-439.32
-476.022
-515.029
-556.618
-600.89
-647.826
-697.539
-750.163
-805.866
-864.865
-927.264
-992.972
-1062.12
-1134.85
-1211.02
-1290.52
-1373.6
-1460.33
-1549.35
-1635.62
-1704.34
-1725.36
-21.7316
-23.4354
-24.9042
-28.5608
-32.1434
-37.1617
-42.8203
-49.5148
-57.0928
-65.6502
-75.2413
-85.803
-97.3765
-110.066
-123.929
-139.005
-155.333
-172.998
-192.034
-212.352
-234.146
-257.477
-282.374
-309.019
-337.465
-367.699
-399.789
-433.866
-470.003
-508.326
-548.858
-591.624
-636.785
-684.516
-734.966
-788.21
-844.154
-902.873
-964.439
-1028.89
-1096.22
-1166.41
-1239.55
-1315.56
-1394.35
-1476.26
-1558.81
-1637.15
-1696.89
-1715.63
-24.911
-26.2776
-27.868
-31.4364
-35.1684
-40.4412
-46.444
-53.4329
-61.3844
-70.297
-80.3094
-91.4245
-103.746
-117.31
-132.015
-147.947
-165.141
-183.689
-203.756
-225.408
-248.561
-273.337
-299.766
-327.85
-357.725
-389.53
-423.238
-458.83
-496.388
-535.965
-577.695
-621.634
-667.817
-716.323
-767.079
-820.152
-875.79
-933.831
-994.235
-1057.11
-1122.4
-1190.1
-1260.05
-1332.05
-1405.85
-1481.49
-1555.3
-1621.4
-1666.97
-1684.93
-26.5917
-27.9777
-29.4978
-32.9886
-36.6878
-41.9383
-47.976
-55.1377
-63.3843
-72.7023
-83.1287
-94.6784
-107.384
-121.507
-136.919
-153.699
-171.886
-191.487
-212.46
-235.017
-259.275
-285.224
-312.963
-342.537
-373.895
-406.998
-441.994
-478.967
-517.916
-558.837
-601.693
-646.566
-693.424
-742.239
-793.271
-846.496
-901.667
-959.029
-1018.51
-1079.71
-1142.57
-1207.1
-1273.33
-1341.06
-1409.95
-1477.82
-1540.96
-1591.37
-1618.96
-1633.08
-26.1738
-27.5262
-29.3033
-32.768
-36.5467
-41.7892
-47.7901
-54.8545
-63.0663
-72.4449
-83.0717
-95.0691
-108.328
-122.748
-138.486
-155.678
-174.461
-194.915
-217.013
-240.66
-265.998
-293.089
-321.943
-352.666
-385.333
-419.967
-456.458
-494.804
-534.962
-576.944
-620.768
-666.406
-713.957
-763.483
-814.758
-867.795
-922.708
-979.168
-1037.06
-1096.52
-1157.35
-1219.2
-1281.75
-1344.77
-1407.87
-1468.33
-1521.2
-1558.53
-1571.92
-1580.43
-24.4468
-25.7534
-27.6078
-30.91
-34.553
-39.6066
-45.4775
-52.4117
-60.5374
-69.8655
-80.4227
-92.2538
-105.576
-120.268
-136.533
-154.236
-173.449
-194.347
-217.134
-241.712
-268.068
-296.263
-326.331
-358.284
-392.137
-427.936
-465.701
-505.323
-546.829
-590.147
-635.244
-682
-730.306
-780.074
-831.425
-884.439
-938.991
-994.946
-1052.21
-1110.33
-1168.97
-1228.08
-1287.52
-1346.96
-1404.67
-1457.43
-1501.35
-1529.85
-1540.83
-1543.99
-21.8682
-23.1864
-24.8582
-27.8609
-31.3586
-36.0639
-41.5317
-48.1225
-55.9037
-64.9165
-75.2122
-86.8921
-99.9468
-114.574
-130.908
-148.952
-168.678
-190.008
-213.187
-238.416
-265.635
-294.811
-325.928
-359.07
-394.286
-431.451
-470.602
-511.761
-554.699
-599.313
-645.45
-693.118
-742.21
-792.767
-844.842
-898.094
-952.419
-1007.99
-1064.32
-1121.24
-1178.55
-1235.8
-1292.82
-1348.91
-1402.61
-1449.88
-1485.5
-1504.65
-1515.62
-1516.48
-17.9753
-19.6757
-21.402
-24.1558
-27.1153
-31.3162
-36.2543
-42.2367
-49.4099
-57.8751
-67.6703
-78.9285
-91.595
-105.932
-122.032
-140.056
-160.037
-181.896
-205.541
-231.183
-258.966
-288.937
-321.082
-355.3
-391.605
-430.095
-470.662
-513.186
-557.568
-603.717
-651.497
-700.564
-750.959
-802.518
-854.877
-908.405
-963.192
-1018.53
-1074.54
-1131.12
-1187.81
-1244.28
-1299.84
-1354.2
-1404.01
-1446.7
-1475.83
-1485.41
-1490.6
-1493.28
-13.1478
-15.3251
-17.257
-19.8303
-22.4231
-25.9677
-30.191
-35.4162
-41.7233
-49.3091
-58.2881
-68.8129
-80.9591
-94.8546
-110.6
-128.247
-147.924
-169.889
-193.938
-220.067
-248.387
-278.949
-311.881
-347.184
-384.766
-424.539
-466.637
-510.878
-557.037
-604.854
-654.198
-704.909
-756.474
-808.889
-862.533
-916.97
-971.953
-1027.96
-1084.42
-1140.86
-1197.16
-1253.24
-1308.47
-1360.53
-1407.53
-1444.58
-1465.82
-1474.59
-1473.4
-1476.59
-8.57493
-11.1442
-13.1497
-15.3239
-17.506
-20.4284
-23.7997
-28.1411
-33.4613
-39.9914
-47.9189
-57.3981
-68.6609
-81.8418
-96.9514
-114.058
-133.287
-154.815
-178.8
-205.16
-233.97
-265.238
-298.946
-335.162
-373.822
-414.973
-458.501
-504.412
-552.417
-602.348
-653.623
-705.889
-759.361
-813.77
-868.568
-923.914
-979.981
-1036.39
-1093.14
-1150.3
-1207.82
-1264.62
-1319.18
-1369.29
-1411.89
-1441.76
-1453.87
-1459.99
-1459.47
-1461.85
-4.61314
-7.51489
-9.54608
-11.366
-13.0956
-15.3568
-17.7314
-20.8789
-24.956
-30.1972
-36.7995
-44.9798
-54.9529
-67.0041
-81.2257
-97.6747
-116.431
-137.505
-161.123
-187.346
-216.205
-247.856
-282.352
-319.578
-359.386
-401.773
-446.94
-494.647
-544.583
-596.26
-649.799
-704.852
-760.477
-816.303
-872.619
-929.512
-986.757
-1044.26
-1102.1
-1160.03
-1217.74
-1274.57
-1327.98
-1376.4
-1415.01
-1436.96
-1445.43
-1445.68
-1446.94
-1448.62
-1.33845
-4.41708
-6.43016
-8.04891
-9.45174
-11.0027
-12.5039
-14.5103
-17.2789
-21.0621
-26.1582
-32.7988
-41.3278
-51.8907
-64.7181
-79.9443
-97.657
-117.977
-141.05
-167.061
-195.931
-227.736
-262.547
-300.436
-341.334
-385.109
-431.695
-481.372
-533.77
-588.371
-644.372
-701.343
-759.113
-817.504
-876.079
-934.584
-993.099
-1051.95
-1110.89
-1169.79
-1228.69
-1286.26
-1339.46
-1384.83
-1416.12
-1428.83
-1434.61
-1433.89
-1435.12
-1436.56
1.70594
-0.92066
-3.42629
-5.33092
-6.70014
-7.77405
-8.53328
-9.36458
-10.6295
-12.6639
-15.9074
-20.7077
-27.3944
-36.2696
-47.5465
-61.3753
-77.9769
-97.3946
-119.657
-144.908
-173.45
-205.254
-240.299
-278.756
-320.515
-365.645
-413.966
-465.369
-519.89
-576.868
-635.796
-696.125
-757.192
-818.147
-878.655
-939.111
-999.589
-1059.35
-1118.98
-1178.94
-1238.59
-1295.89
-1347.78
-1390.8
-1415.52
-1423.33
-1422.58
-1423.09
-1423.98
-1425.31
3.94535
2.28085
-0.869221
-2.90315
-4.25432
-5.28933
-5.66619
-5.81723
-5.83604
-6.3025
-7.70113
-10.5374
-15.1923
-22.0284
-31.2746
-43.2055
-58.0203
-75.9328
-97.1625
-121.664
-149.527
-180.838
-215.764
-254.359
-296.792
-342.82
-392.775
-446.407
-503.71
-564.02
-626.377
-689.93
-753.937
-817.935
-881.416
-943.806
-1005.44
-1066.99
-1127.74
-1187.77
-1247.75
-1306.19
-1359.76
-1395.75
-1409.54
-1415.25
-1413.01
-1412.9
-1413.29
-1414.31
5.54129
6.09307
1.49085
-0.604749
-2.47864
-3.88218
-4.1456
-3.83681
-2.56532
-1.19264
-0.675874
-1.1921
-3.73618
-8.5156
-15.7643
-25.7619
-38.7288
-54.8633
-74.5718
-98.0069
-124.984
-155.695
-190.28
-228.815
-271.724
-318.84
-369.846
-425.358
-485.38
-549.291
-615.465
-682.922
-750.951
-818.698
-885.262
-950.2
-1013.24
-1075.15
-1136.99
-1198.28
-1257.24
-1313.89
-1363.48
-1395.94
-1406.03
-1404.06
-1403.12
-1402.34
-1402.06
-1402.6
4.02829
9.22817
3.08248
1.70195
-0.683867
-2.42907
-3.28804
-3.3832
-1.34257
1.6686
3.95976
4.95579
4.52898
2.04334
-2.89523
-10.5486
-21.3167
-35.4648
-53.2964
-75.1107
-100.8
-130.323
-163.948
-202.269
-245.28
-293.329
-345.767
-402.603
-464.9
-532.822
-604.181
-676.639
-749.008
-821.016
-891.62
-958.859
-1023.16
-1086.46
-1147.94
-1209.29
-1270.52
-1327.94
-1369.7
-1386.92
-1395.81
-1392.62
-1391.4
-1390.31
-1389.54
-1389.8
-23.2965
5.96559
2.09593
2.3766
0.691019
-1.47767
-3.35554
-3.55302
-1.29796
3.80427
8.5776
9.72824
11.9382
13.0044
9.86616
3.58111
-6.00808
-19.0297
-35.1535
-55.2055
-79.3009
-107.646
-140.481
-178.356
-221.108
-269.499
-323.321
-381.966
-446.516
-518.015
-594.22
-671.93
-750.143
-827.819
-903.211
-973.176
-1038.94
-1101.39
-1161.38
-1219.67
-1276.44
-1327.26
-1362.71
-1379.13
-1378.4
-1377.66
-1377.13
-1376.59
-1376.29
-1376.31
-6.22103
10.6126
6.98637
3.1525
0.052768
-2.98831
-7.22907
-9.63092
-8.95492
-4.23951
4.73997
9.1591
11.0719
13.7338
15.1627
11.9532
5.08367
-5.40198
-19.7522
-38.7096
-62.6754
-90.9808
-123.439
-160.67
-203.308
-251.391
-305.442
-365.03
-432.234
-508.295
-590.161
-675.837
-761.951
-845.986
-925.956
-1000.35
-1067.86
-1126.74
-1182.46
-1238.39
-1292.31
-1336.72
-1358.49
-1364.97
-1362.86
-1362.81
-1362.44
-1362.43
-1362.6
-1362.84
5.685
9.40459
6.95636
2.14697
-2.0466
-6.16503
-12.23
-15.9746
-12.182
-5.92356
-0.140456
4.21191
9.36064
14.215
15.9721
12.7926
5.61761
-3.87641
-17.836
-37.1626
-61.7377
-91.2186
-125.59
-164.191
-207.852
-257.011
-311.944
-372.419
-441.819
-523.791
-614.879
-708.739
-801.365
-891.69
-977.319
-1056.9
-1119.87
-1173.62
-1222.27
-1268.72
-1309.05
-1333.48
-1342.81
-1343.12
-1344.23
-1345.82
-1347.1
-1348.18
-1349.14
-1349.89
8.67302
6.61841
4.87731
-0.828144
-6.96549
-13.12
-17.896
-20.332
-16.3883
-9.36388
-1.52121
6.6842
11.5319
16.1331
15.1996
10.7799
3.26767
-8.45665
-25.0431
-46.7133
-74.0485
-106.396
-142.964
-184.212
-230.815
-283.442
-342.053
-406.295
-479.794
-567.135
-666.452
-768.851
-869.211
-967.403
-1061.44
-1134.54
-1189.12
-1235.03
-1269.38
-1296.42
-1311.89
-1318.67
-1321.47
-1324.37
-1327.74
-1330.8
-1333.18
-1335.07
-1336.74
-1338.1
10.1727
3.49707
-2.4439
-9.74804
-17.0141
-24.9958
-31.8648
-33.3262
-27.0374
-13.5049
0.398102
5.00436
5.06976
10.3137
11.1932
6.78571
0.156722
-13.0743
-32.032
-58.1242
-90.635
-127.749
-168.848
-213.136
-262.313
-318.318
-381.284
-451.209
-532.121
-629.764
-738.724
-851.823
-963.858
-1069.6
-1158.97
-1221.65
-1265.45
-1292.6
-1307.2
-1306.69
-1304.36
-1304.52
-1307.68
-1311.82
-1315.65
-1318.82
-1321.39
-1323.7
-1325.99
-1328.49
6.68765
-1.73306
-11.895
-22.9323
-36.5252
-48.7262
-56.6758
-58.624
-48.4366
-32.0398
-27.9525
-17.5571
-8.33511
-7.56344
-4.45028
-5.12845
-11.634
-24.8688
-45.3668
-74.6884
-110.671
-149.567
-193.566
-241.98
-295.321
-356.177
-424.946
-502.389
-591.531
-702.215
-828.479
-958.189
-1080.98
-1186.31
-1265.42
-1312.93
-1335.76
-1338.34
-1323.67
-1310.38
-1304.86
-1303.31
-1304.37
-1306.99
-1309.06
-1310.92
-1312.87
-1315.4
-1318.35
-1321.55
2.97873
-9.98662
-27.2122
-44.7237
-64.3296
-88.4028
-104.605
-105.254
-98.0375
-89.5209
-72.745
-59.1653
-47.9911
-42.6356
-35.0599
-31.5836
-34.7736
-47.2413
-72.5982
-106.35
-142.607
-181.363
-224.421
-272.135
-326.619
-392.691
-469.229
-558.231
-664.111
-792.15
-939.732
-1085.38
-1212.43
-1313.19
-1379.81
-1406.33
-1396.36
-1372.8
-1349.52
-1333.47
-1323.92
-1317.27
-1313.69
-1311.17
-1309.51
-1308.64
-1309.15
-1311.27
-1314.55
-1318.29
-6.9658
-24.1158
-47.5781
-80.4097
-118.839
-153.823
-182.04
-203.177
-196.028
-173.36
-147.986
-129.289
-116.742
-101.291
-88.9815
-78.9214
-82.4674
-101.826
-129.51
-160.029
-192.769
-228.858
-267.294
-312.302
-364.003
-430.126
-513
-613.178
-744.272
-900.487
-1070.04
-1227.52
-1353.97
-1447.48
-1494.39
-1491.95
-1465.86
-1435.18
-1406.6
-1382.48
-1363.07
-1347.49
-1334.98
-1324.95
-1317.51
-1312.76
-1310.8
-1311.6
-1314.49
-1318.48
-20.2946
-50.8032
-90.4837
-137.328
-197.129
-280.299
-359.504
-387.601
-361.936
-329.547
-297.955
-265.741
-229.702
-195.814
-164.494
-147.279
-159.016
-194.223
-229.703
-253.644
-268.195
-290.8
-320.707
-359.587
-408.664
-472.468
-561.116
-675.914
-830.853
-1017.17
-1208.53
-1380.56
-1511.44
-1584.39
-1609.61
-1600.02
-1568.73
-1529.59
-1489.31
-1452.07
-1418.41
-1389.31
-1364.53
-1345.24
-1330.94
-1321.39
-1316.12
-1314.74
-1316.45
-1320.11
-46.1317
-90.2658