/*--------------------------------*- C++ -*----------------------------------*\
| =========                 |                                                 |
| \\      /  F ield         | OpenFOAM: The Open Source CFD Toolbox           |
|  \\    /   O peration     | Version:  v1912                                 |
|   \\  /    A nd           | Website:  www.openfoam.com                      |
|    \\/     M anipulation  |                                                 |
\*---------------------------------------------------------------------------*/
FoamFile
{
    version     2.0;
    format      ascii;
    class       surfaceScalarField;
    location    "0.33";
    object      phi;
}
// * * * * * * * * * * * * * * * * * * * * * * * * * * * * * * * * * * * * * //

dimensions      [0 3 -1 0 0 0 0];
oriented        oriented;


internalField   nonuniform List<scalar> 
13060
(
0.00663369
0.987372
-0.994005
0.00938111
0.943549
-0.946296
0.0119397
0.896649
-0.899207
0.0141211
0.851752
-0.853933
0.0156843
0.80945
-0.811013
0.0166132
0.769972
-0.770901
0.0171118
0.732881
-0.733379
0.017265
0.697742
-0.697895
0.0172
0.664238
-0.664173
0.0172346
0.632226
-0.632261
0.0173403
0.601902
-0.602007
0.0174681
0.573082
-0.57321
0.0176024
0.545631
-0.545765
0.0177939
0.519238
-0.519429
0.0180537
0.494053
-0.494313
0.0183826
0.469991
-0.47032
0.018788
0.446905
-0.44731
0.019058
0.425052
-0.425322
0.0191667
0.404101
-0.404209
0.019266
0.383883
-0.383982
0.0193327
0.364715
-0.364782
0.0193481
0.346543
-0.346559
0.0192359
0.329252
-0.32914
0.0188894
0.312849
-0.312502
0.0183873
0.297186
-0.296684
0.0179418
0.282148
-0.281703
0.0175851
0.267887
-0.26753
0.0172325
0.254496
-0.254143
0.016778
0.241747
-0.241292
0.0162255
0.229661
-0.229109
0.0155673
0.218265
-0.217607
0.0147934
0.207451
-0.206677
0.0139448
0.197243
-0.196395
0.0131384
0.187635
-0.186829
0.0123535
0.178669
-0.177884
0.0114935
0.170125
-0.169265
0.0105665
0.162077
-0.16115
0.00953424
0.154609
-0.153577
0.00838465
0.147597
-0.146448
0.00720923
0.141018
-0.139843
0.00605077
0.13483
-0.133671
0.00488715
0.129018
-0.127855
0.00370978
0.123544
-0.122366
0.00258226
0.118448
-0.11732
0.00147211
0.113636
-0.112525
0.00044894
0.10923
-0.108207
-0.000614532
0.104642
-0.103578
-0.00164295
0.101254
-0.100226
-0.00175394
0.0930539
-0.0929429
0.0648359
-0.0665898
0.00655254
0.980819
0.00883263
0.941269
0.0107571
0.894724
0.0119383
0.850571
0.0126292
0.808759
0.0132229
0.769378
0.01365
0.732454
0.0139722
0.69742
0.0142768
0.663934
0.0143679
0.632135
0.0143453
0.601924
0.0143326
0.573095
0.0143137
0.54565
0.0142377
0.519314
0.014091
0.4942
0.0138538
0.470229
0.0136741
0.447084
0.0136379
0.425088
0.0136421
0.404096
0.0136083
0.383916
0.0135632
0.36476
0.0134788
0.346628
0.0134307
0.3293
0.0135584
0.312721
0.0136382
0.297106
0.0135535
0.282233
0.0131761
0.268264
0.0126517
0.25502
0.0120557
0.242343
0.0114438
0.230273
0.010784
0.218925
0.0100924
0.208143
0.00934906
0.197987
0.00849771
0.188486
0.00756759
0.179599
0.00659264
0.1711
0.00559571
0.163074
0.00462961
0.155575
0.00375366
0.148473
0.00286039
0.141911
0.00195235
0.135738
0.00108816
0.129882
0.000271837
0.12436
-0.000560096
0.11928
-0.00132348
0.114399
-0.00198052
0.109887
-0.00264368
0.105305
-0.00282409
0.101434
-0.00227504
0.0925049
0.0625609
0.00687614
0.973943
0.00889713
0.939248
0.0100663
0.893555
0.0106811
0.849956
0.0109198
0.80852
0.0106888
0.769609
0.0102494
0.732893
0.00982465
0.697845
0.00931669
0.664442
0.00904968
0.632402
0.00891735
0.602056
0.00883424
0.573178
0.00884232
0.545642
0.00895814
0.519198
0.00918184
0.493976
0.00944321
0.469967
0.00954925
0.446978
0.00952793
0.425109
0.00939367
0.404231
0.00920212
0.384108
0.0090676
0.364895
0.00891753
0.346778
0.00858912
0.329628
0.0079916
0.313319
0.00734905
0.297748
0.00683969
0.282742
0.00649263
0.268611
0.00614568
0.255367
0.00568466
0.242804
0.00513416
0.230824
0.00455657
0.219502
0.00393808
0.208761
0.00325854
0.198666
0.00262331
0.189121
0.00203917
0.180183
0.00143432
0.171705
0.000831474
0.163677
0.000155192
0.156252
-0.000655396
0.149284
-0.0014068
0.142663
-0.00207545
0.136407
-0.00269697
0.130504
-0.00327133
0.124934
-0.00372722
0.119736
-0.00411212
0.114784
-0.00439299
0.110168
-0.00457868
0.105491
-0.00414623
0.101002
-0.00293016
0.0912888
0.0596307
0.00594969
0.967993
0.00671191
0.938486
0.0070218
0.893245
0.00698048
0.849997
0.00689432
0.808606
0.00687503
0.769628
0.00679743
0.732971
0.00668284
0.697959
0.00658598
0.664538
0.00634854
0.632639
0.00607887
0.602326
0.00578504
0.573472
0.00545034
0.545977
0.00505539
0.519593
0.00464496
0.494387
0.00432384
0.470288
0.00414048
0.447162
0.00411825
0.425131
0.00405837
0.404291
0.00381673
0.38435
0.00348183
0.36523
0.00316293
0.347097
0.00297259
0.329819
0.00300456
0.313287
0.0030025
0.29775
0.00270668
0.283038
0.00221855
0.269099
0.00168551
0.2559
0.00115743
0.243332
0.000616143
0.231365
2.99067e-05
0.220089
-0.000610545
0.209402
-0.00123561
0.199291
-0.00194312
0.189829
-0.00269846
0.180939
-0.00345376
0.17246
-0.00418119
0.164405
-0.00478423
0.156855
-0.00524885
0.149748
-0.00569943
0.143113
-0.00612012
0.136827
-0.00644699
0.130831
-0.00667646
0.125164
-0.00678241
0.119842
-0.00674016
0.114742
-0.00652743
0.109955
-0.006242
0.105205
-0.00538887
0.100149
-0.00357407
0.089474
0.0560566
0.0054562
0.962537
0.00626785
0.937674
0.00628401
0.893229
0.00581049
0.850471
0.00511073
0.809306
0.00400899
0.77073
0.00303087
0.733949
0.00217287
0.698817
0.00137397
0.665337
0.000859978
0.633153
0.000574065
0.602612
0.000396049
0.57365
0.000342882
0.54603
0.000367562
0.519568
0.000377935
0.494376
0.000277029
0.470389
6.58463e-05
0.447373
-0.000213918
0.425411
-0.00042594
0.404503
-0.000602043
0.384526
-0.000839324
0.365467
-0.00116993
0.347427
-0.0017017
0.330351
-0.00253977
0.314125
-0.00336315
0.298574
-0.00396057
0.283635
-0.00438649
0.269525
-0.00478836
0.256302
-0.00525443
0.243798
-0.00576657
0.231877
-0.00626169
0.220584
-0.00676979
0.20991
-0.00730623
0.199828
-0.00776984
0.190293
-0.00815226
0.181321
-0.00850684
0.172815
-0.00884691
0.164745
-0.00921904
0.157227
-0.00959194
0.150121
-0.00983585
0.143357
-0.00995154
0.136943
-0.00997658
0.130856
-0.00988485
0.125072
-0.00965809
0.119615
-0.00929775
0.114381
-0.0087517
0.109409
-0.0081054
0.104559
-0.00682114
0.0988645
-0.00432335
0.0869762
0.0517333
0.00407432
0.958463
0.00316994
0.938579
0.00217513
0.894224
0.00150998
0.851136
0.000779031
0.810037
0.000317368
0.771192
-0.000163285
0.734429
-0.000673885
0.699328
-0.00110725
0.665771
-0.00164678
0.633693
-0.00228656
0.603252
-0.00298273
0.574346
-0.00365933
0.546707
-0.00425965
0.520168
-0.00470999
0.494827
-0.00502447
0.470704
-0.00528267
0.447631
-0.00557615
0.425704
-0.00596526
0.404892
-0.00645446
0.385015
-0.00694957
0.365962
-0.0073211
0.347799
-0.00747799
0.330507
-0.00743334
0.31408
-0.00747361
0.298614
-0.00790185
0.284064
-0.00850723
0.270131
-0.0091121
0.256907
-0.00963596
0.244322
-0.0101586
0.2324
-0.0107063
0.221132
-0.0112222
0.210426
-0.011682
0.200288
-0.0121701
0.190781
-0.012664
0.181815
-0.0131118
0.173262
-0.0134701
0.165103
-0.0136443
0.157401
-0.0136773
0.150154
-0.0136577
0.143338
-0.0135535
0.136839
-0.0133041
0.130606
-0.0129234
0.124691
-0.0124114
0.119103
-0.0117457
0.113716
-0.0108924
0.108556
-0.0098952
0.103562
-0.0081801
0.0971494
-0.00498891
0.083785
0.0467444
0.00380392
0.954659
0.00286961
0.939513
0.00166462
0.895429
0.000536784
0.852264
-0.0010054
0.811579
-0.00260395
0.77279
-0.00403238
0.735858
-0.00521707
0.700513
-0.00625919
0.666813
-0.00697094
0.634405
-0.00737573
0.603657
-0.00764125
0.574612
-0.00790404
0.546969
-0.00825354
0.520518
-0.00868019
0.495253
-0.00911541
0.471139
-0.00954013
0.448056
-0.00990465
0.426069
-0.0102074
0.405194
-0.0105193
0.385327
-0.0109055
0.366348
-0.0113828
0.348276
-0.0121348
0.331259
-0.0131504
0.315096
-0.0140415
0.299505
-0.0145809
0.284603
-0.0149738
0.270524
-0.0153878
0.257321
-0.0158535
0.244787
-0.0162944
0.232841
-0.0166706
0.221508
-0.0170171
0.210772
-0.0173547
0.200625
-0.0175939
0.19102
-0.0177134
0.181934
-0.0177457
0.173295
-0.0177237
0.165081
-0.0177164
0.157394
-0.0176538
0.150092
-0.0174142
0.143098
-0.0170182
0.136443
-0.0165158
0.130104
-0.0158842
0.12406
-0.0151028
0.118322
-0.0142184
0.112831
-0.0132576
0.107595
-0.0118741
0.102178
-0.0096828
0.0949581
-0.00572376
0.079826
0.0410206
0.00210242
0.952556
-0.000178631
0.941794
-0.00225563
0.897506
-0.00385847
0.853867
-0.00505606
0.812777
-0.00588374
0.773618
-0.00673207
0.736706
-0.00759651
0.701377
-0.00840482
0.667621
-0.00937223
0.635372
-0.0104295
0.604714
-0.011413
0.575595
-0.0121967
0.547753
-0.0127992
0.521121
-0.0133216
0.495776
-0.013829
0.471646
-0.0143889
0.448616
-0.0150289
0.426709
-0.0157173
0.405883
-0.0163614
0.385971
-0.0169649
0.366952
-0.0174285
0.34874
-0.017607
0.331438
-0.0175683
0.315057
-0.0176986
0.299635
-0.0181546
0.285059
-0.0187486
0.271118
-0.0193033
0.257875
-0.0197684
0.245252
-0.0202063
0.233278
-0.0206461
0.221948
-0.0210185
0.211145
-0.0212855
0.200892
-0.0215231
0.191257
-0.0217214
0.182133
-0.021844
0.173417
-0.0218391
0.165076
-0.0216214
0.157176
-0.0212489
0.149719
-0.020809
0.142658
-0.0202596
0.135893
-0.0195534
0.129398
-0.0187168
0.123223
-0.0177541
0.117359
-0.0166404
0.111717
-0.0154719
0.106426
-0.0137147
0.100421
-0.0110697
0.0923131
-0.00635244
0.0751088
0.0346682
0.00192072
0.950636
7.19698e-06
0.943707
-0.00219917
0.899712
-0.00425984
0.855927
-0.00647297
0.81499
-0.00854511
0.77569
-0.0102527
0.738414
-0.0116579
0.702782
-0.0128345
0.668798
-0.0136326
0.63617
-0.0142038
0.605285
-0.0147893
0.576181
-0.0154895
0.548453
-0.0162342
0.521865
-0.0169373
0.496479
-0.0175515
0.472261
-0.0180728
0.449137
-0.0185565
0.427193
-0.0190471
0.406374
-0.0195529
0.386477
-0.020078
0.367477
-0.0207575
0.349419
-0.0217376
0.332418
-0.0228795
0.316199
-0.0238406
0.300597
-0.0243961
0.285615
-0.0247819
0.271503
-0.0251552
0.258249
-0.0255458
0.245643
-0.025893
0.233626
-0.0261125
0.222167
-0.0262647
0.211297
-0.0263862
0.201014
-0.0264001
0.191271
-0.0262653
0.181998
-0.0259978
0.17315
-0.0256485
0.164727
-0.0252958
0.156823
-0.0248587
0.149282
-0.0242307
0.14203
-0.0234523
0.135115
-0.022577
0.128522
-0.0215875
0.122234
-0.0204698
0.116241
-0.0192452
0.110493
-0.0178364
0.105018
-0.0158382
0.0984228
-0.0126696
0.0891445
-0.00704416
0.0694834
0.027624
0.000544594
0.950091
-0.00314464
0.947397
-0.00591321
0.902481
-0.00809949
0.858114
-0.00971873
0.816609
-0.011045
0.777017
-0.0123174
0.739686
-0.0135579
0.704023
-0.0147886
0.670028
-0.0161061
0.637488
-0.0173467
0.606526
-0.0183127
0.577147
-0.0190944
0.549235
-0.0198402
0.522611
-0.0206249
0.497264
-0.0214768
0.473112
-0.0223671
0.450027
-0.0232546
0.42808
-0.0240755
0.407194
-0.0248685
0.38727
-0.0256524
0.368261
-0.026206
0.349973
-0.0264512
0.332663
-0.0265216
0.316269
-0.0267225
0.300797
-0.0272155
0.286108
-0.0278306
0.272119
-0.028371
0.258789
-0.0287784
0.24605
-0.0290906
0.233938
-0.0293942
0.222471
-0.0296297
0.211532
-0.0297327
0.201117
-0.0297481
0.191287
-0.0296943
0.181944
-0.0295615
0.173017
-0.0292925
0.164458
-0.0287897
0.156321
-0.0281204
0.148613
-0.0273765
0.141286
-0.0265212
0.13426
-0.0255182
0.127519
-0.0243922
0.121108
-0.0231597
0.115009
-0.0219194
0.109253
-0.0202008
0.103299
-0.0178886
0.0961106
-0.0140694
0.0853252
-0.00769275
0.0631067
0.0199313
0.000756906
0.949334
-0.00210997
0.950264
-0.00505511
0.905426
-0.0079739
0.861032
-0.010705
0.81934
-0.0130815
0.779393
-0.0150607
0.741665
-0.0166825
0.705645
-0.0179604
0.671306
-0.0189725
0.6385
-0.0198924
0.607446
-0.0208871
0.578141
-0.0218769
0.550225
-0.0227719
0.523506
-0.0235546
0.498046
-0.0242407
0.473799
-0.0249053
0.450692
-0.0255801
0.428755
-0.0262934
0.407908
-0.0269783
0.387954
-0.0276761
0.368959
-0.0285668
0.350863
-0.0297118
0.333808
-0.0309578
0.317515
-0.0319879
0.301827
-0.0326335
0.286753
-0.0330899
0.272575
-0.0334709
0.25917
-0.0338225
0.246402
-0.0341052
0.234221
-0.0342255
0.222591
-0.0342342
0.211541
-0.0342019
0.201085
-0.0340692
0.191154
-0.0337717
0.181647
-0.033297
0.172542
-0.0327191
0.16388
-0.0321396
0.155741
-0.0314801
0.147953
-0.0306341
0.14044
-0.029644
0.13327
-0.0285667
0.126442
-0.0273935
0.119934
-0.0261182
0.113733
-0.0247549
0.107889
-0.0227369
0.101281
-0.0199543
0.093328
-0.0151572
0.0805282
-0.00747032
0.0554198
0.0124609
-0.000515414
0.94985
-0.00499004
0.954738
-0.00832875
0.908764
-0.0110188
0.863722
-0.0130196
0.821341
-0.014869
0.781242
-0.0165173
0.743313
-0.0180524
0.70718
-0.0195694
0.672823
-0.0210161
0.639947
-0.0222652
0.608695
-0.0232709
0.579147
-0.0242492
0.551203
-0.0252556
0.524513
-0.0263184
0.499109
-0.0274212
0.474901
-0.0285032
0.451774
-0.0295234
0.429775
-0.0305079
0.408892
-0.0315362
0.388983
-0.0324793
0.369902
-0.0331769
0.351561
-0.0335457
0.334177
-0.0337452
0.317715
-0.0340356
0.302118
-0.034578
0.287296
-0.0351994
0.273196
-0.0357642
0.259735
-0.0361978
0.246836
-0.0365041
0.234527
-0.0367793
0.222866
-0.0369837
0.211745
-0.0370237
0.201125
-0.0369169
0.191047
-0.0367216
0.181451
-0.0364724
0.172293
-0.0361016
0.163509
-0.0354781
0.155118
-0.034662
0.147137
-0.0337662
0.139544
-0.0327653
0.132269
-0.0316226
0.125299
-0.0303697
0.118681
-0.0291885
0.112552
-0.0275478
0.106249
-0.0253445
0.0990777
-0.0217917
0.0897751
-0.015471
0.0742075
-0.00582831
0.0457771
0.00663263
-7.11076e-05
0.949921
-0.00366452
0.958332
-0.00724258
0.912342
-0.0106297
0.86711
-0.0136119
0.824323
-0.0161097
0.78374
-0.0182393
0.745443
-0.019995
0.708936
-0.0213814
0.67421
-0.022626
0.641191
-0.0238865
0.609955
-0.0250849
0.580346
-0.0261542
0.552272
-0.0271448
0.525503
-0.0280059
0.49997
-0.0288205
0.475716
-0.0296812
0.452635
-0.0305926
0.430687
-0.0314802
0.40978
-0.032314
0.389817
-0.0332283
0.370816
-0.0343565
0.352689
-0.0356904
0.335511
-0.0370948
0.319119
-0.0382869
0.30331
-0.039108
0.288117
-0.0396844
0.273773
-0.0401105
0.260161
-0.0405097
0.247235
-0.0408519
0.234869
-0.0410005
0.223015
-0.040997
0.211742
-0.0409409
0.201069
-0.040806
0.190912
-0.0405015
0.181147
-0.039971
0.171762
-0.0393154
0.162854
-0.0386692
0.154471
-0.0379711
0.146439
-0.0370932
0.138667
-0.0360694
0.131245
-0.0349575
0.124188
-0.033802
0.117526
-0.0324936
0.111244
-0.0305478
0.104303
-0.0278605
0.0963905
-0.0232916
0.0852062
-0.015178
0.066094
-0.00382935
0.0344284
0.00280327
-0.00136021
0.951281
-0.00611095
0.963082
-0.00960785
0.915839
-0.0127392
0.870241
-0.0151676
0.826752
-0.0172779
0.785851
-0.0190118
0.747177
-0.0206205
0.710544
-0.0221727
0.675762
-0.0235693
0.642588
-0.0247986
0.611184
-0.0259613
0.581508
-0.0270874
0.553398
-0.028317
0.526733
-0.0296433
0.501297
-0.0309503
0.477023
-0.0321908
0.453875
-0.0334089
0.431905
-0.0346841
0.411055
-0.0359642
0.391097
-0.0370828
0.371935
-0.0379739
0.35358
-0.038559
0.336096
-0.0389342
0.319494
-0.0394093
0.303785
-0.0401206
0.288828
-0.0408742
0.274526
-0.0415959
0.260883
-0.0421515
0.247791
-0.0425721
0.23529
-0.0429547
0.223397
-0.0432837
0.212071
-0.0434202
0.201205
-0.0433462
0.190838
-0.0431609
0.180962
-0.0429704
0.171572
-0.0426889
0.162572
-0.0421357
0.153918
-0.0413462
0.145649
-0.0404686
0.137789
-0.039496
0.130272
-0.0384018
0.123093
-0.0373868
0.116511
-0.0358513
0.109709
-0.033695
0.102146
-0.0302297
0.0929252
-0.0243492
0.0793257
-0.0149885
0.0567333
-0.00246862
0.0219086
0.000334652
-0.00111485
0.952396
-0.00520848
0.967176
-0.00887625
0.919507
-0.0121471
0.873512
-0.0150503
0.829655
-0.0176537
0.788454
-0.0198237
0.749347
-0.0215391
0.71226
-0.0229681
0.677191
-0.0242418
0.643862
-0.0254823
0.612425
-0.0266853
0.582711
-0.0278047
0.554518
-0.0287772
0.527705
-0.0297285
0.502248
-0.0307651
0.47806
-0.0318777
0.454988
-0.0330271
0.433054
-0.0341329
0.412161
-0.0352907
0.392254
-0.0365384
0.373182
-0.0379481
0.35499
-0.0395454
0.337693
-0.0412712
0.32122
-0.0427184
0.305232
-0.0438023
0.289912
-0.0446416
0.275366
-0.045293
0.261534
-0.0458945
0.248392
-0.0464102
0.235805
-0.0467194
0.223707
-0.0468463
0.212198
-0.0469295
0.201288
-0.0469787
0.190887
-0.0468768
0.18086
-0.0464899
0.171185
-0.045931
0.162013
-0.0453823
0.15337
-0.0448236
0.145091
-0.044093
0.137058
-0.0432041
0.129384
-0.0424019
0.122291
-0.041312
0.115421
-0.0395999
0.107996
-0.0371052
0.0996517
-0.0328825
0.0887025
-0.0250842
0.0715274
-0.0126778
0.0443269
-0.00157819
0.010809
-0.00124354
-0.00176529
0.954161
-0.0071456
0.972556
-0.0111037
0.923465
-0.0142877
0.876696
-0.0165549
0.831922
-0.018478
0.790377
-0.0200978
0.750967
-0.0215759
0.713738
-0.0229034
0.678518
-0.0241578
0.645116
-0.0252806
0.613548
-0.0263662
0.583797
-0.0275982
0.55575
-0.0289976
0.529105
-0.0304113
0.503662
-0.0318111
0.479459
-0.0332209
0.456397
-0.0347142
0.434548
-0.0362857
0.413732
-0.0378161
0.393785
-0.0392468
0.374613
-0.0404935
0.356237
-0.0414204
0.33862
-0.0420967
0.321897
-0.0429727
0.306108
-0.0440106
0.29095
-0.0450627
0.276418
-0.046081
0.262552
-0.0469273
0.249238
-0.0476258
0.236504
-0.0482948
0.224376
-0.0489131
0.212816
-0.0493116
0.201687
-0.049439
0.191015
-0.0494267
0.180847
-0.0494681
0.171227
-0.0494601
0.162005
-0.0491747
0.153084
-0.0486004
0.144516
-0.0479356
0.136394
-0.0472972
0.128745
-0.0465948
0.121589
-0.045306
0.114132
-0.0435052
0.106196
-0.0404381
0.0965846
-0.0346586
0.082923
-0.0243734
0.0612422
-0.00862433
0.0285778
-0.00121231
0.00339695
-0.00245586
-0.00105005
0.955211
-0.00555101
0.977057
-0.00960407
0.927518
-0.0133345
0.880426
-0.0163524
0.83494
-0.0187081
0.792733
-0.0205365
0.752795
-0.0219393
0.715141
-0.0230736
0.679652
-0.0240453
0.646088
-0.0251038
0.614606
-0.0261236
0.584817
-0.0269871
0.556613
-0.0278941
0.530012
-0.0289753
0.504743
-0.0302032
0.480687
-0.0315427
0.457737
-0.0329086
0.435913
-0.0343577
0.415181
-0.0359304
0.395358
-0.0375931
0.376276
-0.0394012
0.358045
-0.0414882
0.340707
-0.0436481
0.324056
-0.0454017
0.307862
-0.0468965
0.292445
-0.048182
0.277703
-0.0492613
0.263632
-0.0502449
0.250222
-0.0511182
0.237377
-0.0517609
0.225018
-0.0521923
0.213247
-0.0525774
0.202072
-0.0529746
0.191412
-0.0532661
0.181139
-0.0532255
0.171186
-0.0529497
0.161729
-0.0526584
0.152793
-0.0524079
0.144266
-0.052041
0.136027
-0.0516665
0.128371
-0.0508843
0.120807
-0.0496044
0.112852
-0.0473888
0.10398
-0.0430013
0.0921971
-0.0342527
0.0741744
-0.019596
0.0465854
-0.00471338
0.0136952
-0.000380856
-0.000935573
-0.00283671
-0.0033982
0.958609
-0.00896445
0.982623
-0.0128105
0.931364
-0.0157401
0.883356
-0.0179838
0.837184
-0.0198
0.794549
-0.0210781
0.754073
-0.0221576
0.71622
-0.0230362
0.680531
-0.0237132
0.646765
-0.0243433
0.615236
-0.0252646
0.585738
-0.026402
0.55775
-0.0276062
0.531216
-0.0289088
0.506045
-0.0303301
0.482109
-0.0319176
0.459324
-0.0336768
0.437673
-0.0355037
0.417008
-0.0373713
0.397225
-0.0392078
0.378112
-0.0408767
0.359714
-0.0421992
0.34203
-0.0434492
0.325306
-0.0449811
0.309394
-0.0465344
0.293998
-0.0480402
0.279209
-0.0494935
0.265085
-0.0508017
0.25153
-0.0519544
0.23853
-0.0530791
0.226143
-0.0541458
0.214314
-0.0549821
0.202908
-0.0554982
0.191928
-0.0558278
0.181468
-0.0562424
0.171601
-0.0566574
0.162144
-0.0568288
0.152964
-0.0566778
0.144115
-0.0564936
0.135843
-0.0561831
0.12806
-0.0552951
0.119918
-0.0536557
0.111213
-0.0503356
0.10066
-0.0435395
0.085401
-0.03123
0.0618649
-0.0126218
0.0279772
-0.00248504
0.00355848
7.59742e-06
-0.00342821
-0.00282911
-0.00335516
0.961964
-0.00832776
0.987596
-0.0126851
0.935722
-0.0162303
0.886901
-0.0187273
0.839681
-0.020594
0.796416
-0.0218054
0.755285
-0.0224819
0.716897
-0.0229863
0.681035
-0.0236192
0.647398
-0.0240016
0.615619
-0.0242431
0.58598
-0.0247051
0.558212
-0.0254267
0.531937
-0.0264237
0.507042
-0.0276715
0.483356
-0.0291011
0.460754
-0.0307158
0.439287
-0.0325443
0.418837
-0.0345454
0.399226
-0.036699
0.380266
-0.0391088
0.362124
-0.0418815
0.344802
-0.044487
0.327912
-0.0466926
0.311599
-0.0487316
0.296037
-0.0506243
0.281102
-0.0523086
0.266769
-0.0538406
0.253062
-0.0552428
0.239932
-0.0563838
0.227284
-0.0572765
0.215207
-0.0580968
0.203729
-0.0589586
0.19279
-0.0597743
0.182284
-0.0602611
0.172087
-0.0604501
0.162333
-0.0605654
0.153079
-0.0607937
0.144343
-0.0609764
0.136025
-0.0605354
0.127619
-0.0595147
0.118898
-0.0572398
0.108938
-0.0519371
0.095357
-0.041107
0.0745709
-0.0229067
0.0436646
-0.00627694
0.0113475
-0.000902952
-0.00181551
0.000221419
-0.00455258
-0.0026077
-0.00512558
0.96709
-0.0119687
0.994439
-0.0166706
0.940424
-0.0201106
0.890341
-0.0220755
0.841646
-0.0231675
0.797508
-0.0237982
0.755915
-0.0239637
0.717062
-0.0237246
0.680796
-0.0235246
0.647198
-0.0236609
0.615755
-0.0239259
0.586245
-0.0243421
0.558629
-0.0250141
0.53261
-0.0259545
0.507983
-0.0272352
0.484637
-0.0288676
0.462386
-0.0307674
0.441187
-0.0328632
0.420933
-0.0351185
0.401482
-0.0374197
0.382567
-0.0394521
0.364156
-0.0412665
0.346617
-0.0433537
0.329999
-0.0456952
0.313941
-0.0479211
0.298263
-0.0500336
0.283214
-0.0520948
0.26883
-0.0540098
0.254977
-0.0557415
0.241664
-0.0574179
0.22896
-0.0590348
0.216824
-0.0604292
0.205123
-0.0614871
0.193848
-0.0623052
0.183102
-0.0631935
0.172976
-0.0641435
0.163283
-0.0649384
0.153874
-0.0654028
0.144808
-0.0654101
0.136033
-0.0649122
0.127121
-0.0634263
0.117412
-0.0593449
0.104857
-0.0502526
0.0862647
-0.0338913
0.0582096
-0.012946
0.0227193
-0.00290261
0.0013041
-5.70914e-05
-0.00466103
0.000303974
-0.00491365
-0.00230372
-0.00632182
0.973412
-0.0129727
1.00109
-0.0181976
0.945649
-0.022078
0.894221
-0.0248197
0.844387
-0.0263238
0.799012
-0.0266553
0.756247
-0.0263425
0.716749
-0.0255844
0.680038
-0.0244712
0.646084
-0.023463
0.614747
-0.0227504
0.585532
-0.022402
0.55828
-0.0224845
0.532692
-0.0230438
0.508542
-0.0239875
0.485581
-0.0253141
0.463713
-0.0270293
0.442902
-0.0291126
0.423016
-0.0315076
0.403877
-0.0342207
0.38528
-0.0374465
0.367382
-0.0409171
0.350087
-0.0439948
0.333077
-0.0467829
0.316729
-0.0495502
0.30103
-0.0522017
0.285866
-0.0545932
0.271222
-0.0568172
0.257201
-0.0588773
0.243724
-0.060648
0.230731
-0.0621144
0.21829
-0.0634486
0.206457
-0.0648264
0.195226
-0.0662195
0.184495
-0.0673389
0.174095
-0.0681426
0.164087
-0.068791
0.154523
-0.0694106
0.145427
-0.0696866
0.136309
-0.0689033
0.126338
-0.0658725
0.114381
-0.058608
0.0975921
-0.0444436
0.0721003
-0.0215606
0.0353267
-0.00547319
0.00663185
-0.000549556
-0.00361954
0.00061345
-0.00582404
0.000418647
-0.00471884
-0.00188508
-0.0105638
0.983976
-0.0188301
1.00936
-0.0247874
0.951606
-0.0283886
0.897823
-0.0300526
0.846051
-0.0307101
0.799669
-0.0304019
0.755939
-0.0295625
0.71591
-0.028216
0.678692
-0.0265924
0.644461
-0.0250731
0.613227
-0.0238173
0.584276
-0.0229283
0.557391
-0.0225044
0.532268
-0.0226575
0.508695
-0.0234601
0.486383
-0.0248401
0.465093
-0.0266997
0.444762
-0.0289617
0.425278
-0.031512
0.406427
-0.0342135
0.387982
-0.0366406
0.369809
-0.0391411
0.352588
-0.042172
0.336108
-0.0453324
0.319889
-0.0483311
0.304029
-0.0511952
0.28873
-0.0540219
0.274049
-0.0566381
0.259817
-0.0590358
0.246121
-0.0613354
0.233031
-0.0635659
0.220521
-0.065596
0.208487
-0.0672588
0.196888
-0.0686053
0.185842
-0.0699701
0.17546
-0.0714789
0.165596
-0.0729852
0.156029
-0.0738959
0.146338
-0.0737764
0.136189
-0.0719248
0.124486
-0.0665038
0.10896
-0.0541062
0.0851945
-0.0316106
0.0496047
-0.0102837
0.0139997
-0.00220256
-0.00144927
1.90938e-05
-0.00584119
0.000482411
-0.00628736
0.000295666
-0.0045321
-0.00158941
-0.0114045
0.99538
-0.0202438
1.0182
-0.0275912
0.958953
-0.0333228
0.903554
-0.0365008
0.849229
-0.0376328
0.800801
-0.0369359
0.755242
-0.0349888
0.713963
-0.0323853
0.676088
-0.0292594
0.641335
-0.0261659
0.610134
-0.0236189
0.581729
-0.0216657
0.555438
-0.0204186
0.531021
-0.0198475
0.508124
-0.0199659
0.486502
-0.0207986
0.465926
-0.0223113
0.446275
-0.0244713
0.427438
-0.0272087
0.409164
-0.0305105
0.391284
-0.0345713
0.37387
-0.0386583
0.356675
-0.0423159
0.339765
-0.0459035
0.323477
-0.0495114
0.307637
-0.0530029
0.292221
-0.0562033
0.277249
-0.0592148
0.262829
-0.062007
0.248914
-0.064462
0.235486
-0.066556
0.222615
-0.0684209
0.210352
-0.0703229
0.19879
-0.072295
0.187814
-0.0740731
0.177238
-0.0755536
0.167076
-0.0767488
0.157224
-0.0775326
0.147122
-0.0771418
0.135798
-0.0735721
0.120917
-0.0632893
0.0986774
-0.0426416
0.0645469
-0.0174638
0.0244269
-0.00503303
0.00156896
-0.00111902
-0.00536328
-3.50211e-05
-0.00692519
0.000142902
-0.00646528
0.000105917
-0.00449511
-0.00148349
-0.0139828
1.00936
-0.0265911
1.0308
-0.0357257
0.968088
-0.0409437
0.908772
-0.0434714
0.851757
-0.0442007
0.801531
-0.0433455
0.754387
-0.0411758
0.711793
-0.0383474
0.67326
-0.0350324
0.63802
-0.0312961
0.606398
-0.0277332
0.578166
-0.0246461
0.552351
-0.0223051
0.52868
-0.0209448
0.506764
-0.0205877
0.486145
-0.0211668
0.466505
-0.0225598
0.447667
-0.0246182
0.429496
-0.0271752
0.411721
-0.0300262
0.394135
-0.0328592
0.376703
-0.0362814
0.360097
-0.0402766
0.343761
-0.0443211
0.327521
-0.0482172
0.311533
-0.0519909
0.295995
-0.0556917
0.28095
-0.0591261
0.266263
-0.0622809
0.252068
-0.0652657
0.23847
-0.0681372
0.225486
-0.0708559
0.213071
-0.0731498
0.201084
-0.0749978
0.189662
-0.076782
0.179022
-0.0787062
0.169
-0.0804893
0.159007
-0.0813503
0.147983
-0.0792491
0.133697
-0.0714619
0.113129
-0.0542854
0.0815008
-0.0265332
0.0367946
-0.00824449
0.00613821
-0.00214107
-0.00453446
-0.000240559
-0.00726379
0.000291331
-0.00745708
0.000257895
-0.00643184
9.11389e-05
-0.00432836
-0.00139235
-0.0148595
1.02422
-0.0270316
1.04298
-0.03912
0.980176
-0.0485929
0.918245
-0.0540083
0.857172
-0.056152
0.803674
-0.0551478
0.753382
-0.0517363
0.708382
-0.0467135
0.668237
-0.0410633
0.63237
-0.0351378
0.600472
-0.0295972
0.572626
-0.0249497
0.547703
-0.0212711
0.525001
-0.0186049
0.504098
-0.0171056
0.484645
-0.0167677
0.466167
-0.0175564
0.448456
-0.0194218
0.431362
-0.0223594
0.414659
-0.0262847
0.39806
-0.0309072
0.381325
-0.0354113
0.364601
-0.0398699
0.348219
-0.0443813
0.332033
-0.0489701
0.316122
-0.0534239
0.300449
-0.0575548
0.285081
-0.0614652
0.270174
-0.0650942
0.255697
-0.0683038
0.24168
-0.071055
0.228237
-0.0733985
0.215414
-0.0757607
0.203447
-0.0782978
0.192199
-0.0806224
0.181347
-0.0824891
0.170867
-0.0836272
0.160145
-0.0828839
0.147239
-0.0779196
0.128733
-0.064575
0.0997848
-0.0379118
0.0548377
-0.0131406
0.0120234
-0.00303143
-0.003971
0.000608546
-0.00817443
0.00175527
-0.00841051
0.00168309
-0.0073849
0.000999378
-0.00574813
0.000316593
-0.00364558
-0.00107576
-0.0195597
1.04378
-0.0343558
1.05777
-0.0468953
0.992716
-0.0545132
0.925863
-0.0600904
0.86275
-0.0631224
0.806706
-0.0630177
0.753278
-0.0604266
0.705791
-0.0559929
0.663803
-0.050405
0.626782
-0.044009
0.594076
-0.0372594
0.565876
-0.0309847
0.541429
-0.0257986
0.519815
-0.0219121
0.500211
-0.019411
0.482144
-0.0183418
0.465098
-0.0185539
0.448668
-0.0197975
0.432605
-0.0217744
0.416636
-0.0242898
0.400575
-0.0276985
0.384734
-0.032007
0.36891
-0.0368042
0.353016
-0.0418022
0.337031
-0.0467158
0.321035
-0.051539
0.305272
-0.0562653
0.289807
-0.0606661
0.274575
-0.0647204
0.259752
-0.0684894
0.245449
-0.071977
0.231725
-0.0753188
0.218756
-0.078193
0.206321
-0.0803823
0.194388
-0.0823226
0.183287
-0.0838216
0.172366
-0.084144
0.160468
-0.0815466
0.144642
-0.0725209
0.119707
-0.0512456
0.0785096
-0.0207903
0.0243823
-0.00421112
-0.0045557
0.00299129
-0.0111734
0.00571868
-0.0109018
0.00602487
-0.0087167
0.00486338
-0.00622341
0.00296719
-0.00385194
0.00111523
-0.00179362
3.94737e-05
-0.0141554
1.05794
-0.0297339
1.07335
-0.0495994
1.01258
-0.064718
0.940982
-0.0746605
0.872692
-0.0799292
0.811975
-0.0805234
0.753872
-0.0769444
0.702212
-0.0698726
0.656731
-0.0611608
0.61807
-0.0521306
0.585046
-0.0429545
0.5567
-0.0341733
0.532647
-0.0265596
0.512202
-0.020576
0.494227
-0.0162918
0.47786
-0.0137747
0.462581
-0.0130372
0.447931
-0.0139981
0.433566
-0.0167752
0.419413
-0.020927
0.404727
-0.0255042
0.389311
-0.0304672
0.373873
-0.0357456
0.358295
-0.041274
0.342559
-0.0469858
0.326747
-0.052549
0.310835
-0.0577722
0.29503
-0.0627214
0.279524
-0.0673372
0.264367
-0.0714574
0.249569
-0.0749929
0.23526
-0.0778406
0.221604
-0.0803696
0.20885
-0.0832208
0.197239
-0.0857723
0.185839
-0.0870478
0.173642
-0.0854228
0.158843
-0.078379
0.137598
-0.0607598
0.102088
-0.0310656
0.0488154
-0.00441553
-0.00226774
0.00694901
-0.0159202
0.0118074
-0.0160318
0.0130093
-0.0121037
0.0118661
-0.00757349
0.00911989
-0.00347718
0.00563946
-0.0003715
0.00219485
0.00165098
0.00223432
-0.0157897
1.07373
-0.031797
1.08936
-0.0492221
1.03001
-0.0627296
0.954489
-0.0755834
0.885546
-0.0840367
0.820428
-0.0877126
0.757548
-0.0875476
0.702046
-0.0833895
0.652573
-0.0754102
0.610091
-0.0653258
0.574961
-0.054745
0.546119
-0.044495
0.522397
-0.035138
0.502845
-0.027377
0.486466
-0.0216239
0.472107
-0.0178137
0.458771
-0.0157348
0.445852
-0.0152543
0.433086
-0.0158128
0.419971
-0.0177995
0.406714
-0.0213727
0.392884
-0.0261307
0.378631
-0.031756
0.36392
-0.0377631
0.348566
-0.043864
0.332848
-0.0499325
0.316904
-0.0558984
0.300996
-0.0615249
0.28515
-0.066626
0.269469
-0.0713992
0.254343
-0.0756851
0.239546
-0.0794911
0.22541
-0.0829818
0.212341
-0.085422
0.19968
-0.0866465
0.187063
-0.0859514
0.172947
-0.0807923
0.153684
-0.0671231
0.123929
-0.0437346
0.0786993
-0.00932944
0.0144102
0.00977401
-0.0213712
0.0172875
-0.0234337
0.0202699
-0.0190143
0.0201971
-0.0120309
0.0174417
-0.00481806
0.0131967
0.000767767
0.00837447
0.00445078
0.00348036
0.00654509
0.00571469
-0.00366721
1.07739
-0.024
1.10969
-0.0502189
1.05623
-0.0728066
0.977077
-0.0914049
0.904144
-0.103952
0.832975
-0.108697
0.762292
-0.106294
0.699644
-0.100123
0.646402
-0.0905818
0.60055
-0.078322
0.562702
-0.0648299
0.532627
-0.0513467
0.508914
-0.0386053
0.490103
-0.0277674
0.475628
-0.0192428
0.463582
-0.0132943
0.452822
-0.0103346
0.442892
-0.00985918
0.43261
-0.0113609
0.421473
-0.0145221
0.409875
-0.0187999
0.397162
-0.0241284
0.383959
-0.0301524
0.369944
-0.0367442
0.355158
-0.0436232
0.339727
-0.0504791
0.32376
-0.0571764
0.307693
-0.0634345
0.291408
-0.0691252
0.275159
-0.074525
0.259742
-0.0791648
0.244186
-0.0827898
0.229035
-0.0857987
0.21535
-0.0872809
0.201162
-0.0865042
0.186286
-0.0829014
0.169344
-0.0743972
0.145179
-0.0576259