/*--------------------------------*- C++ -*----------------------------------*\
| =========                 |                                                 |
| \\      /  F ield         | OpenFOAM: The Open Source CFD Toolbox           |
|  \\    /   O peration     | Version:  v1912                                 |
|   \\  /    A nd           | Website:  www.openfoam.com                      |
|    \\/     M anipulation  |                                                 |
\*---------------------------------------------------------------------------*/
FoamFile
{
    version     2.0;
    format      ascii;
    class       volVectorField;
    location    "0.33";
    object      U;
}
// * * * * * * * * * * * * * * * * * * * * * * * * * * * * * * * * * * * * * //

dimensions      [0 1 -1 0 0 0 0];


internalField   nonuniform List<vector> 
6600
(
(39.8359 -0.0626358 0)
(40.0572 -0.0980654 3.32591e-20)
(40.0912 -0.0612135 2.30384e-18)
(40.1021 -0.0262967 0)
(40.1091 0.0187099 2.88561e-18)
(40.118 0.0935425 9.96781e-20)
(40.1454 0.209154 -1.10975e-19)
(40.1772 0.331103 -1.23395e-19)
(40.1825 0.488851 2.47294e-18)
(40.1758 0.648521 -1.67874e-19)
(40.1968 0.812488 0)
(40.2277 0.984655 -3.04973e-18)
(40.2533 1.17348 0)
(40.2663 1.36686 -3.54882e-18)
(40.2756 1.56699 -4.56518e-18)
(40.2785 1.77389 -2.41908e-18)
(40.2727 1.98416 0)
(40.2547 2.20573 0)
(40.2089 2.45068 3.91616e-18)
(40.1437 2.71579 -3.83442e-18)
(40.0793 3.00103 -5.44663e-19)
(40.013 3.30676 -1.89792e-18)
(39.9294 3.63625 -3.55945e-18)
(39.8431 4.00106 8.02918e-19)
(39.758 4.42332 2.77041e-18)
(39.6295 4.87636 0)
(39.4873 5.34075 6.91233e-18)
(39.3732 5.82773 0)
(39.2255 6.34763 -3.58256e-18)
(39.0612 6.91167 -2.38133e-18)
(38.8841 7.53085 -2.63374e-19)
(38.6484 8.19509 -2.97916e-18)
(38.3777 8.91616 -1.17411e-18)
(38.1466 9.69556 2.50662e-18)
(38.0061 10.5343 3.13463e-19)
(37.8206 11.4273 3.02373e-18)
(37.5754 12.3781 5.49059e-18)
(37.3599 13.4169 5.67446e-18)
(37.1554 14.5719 -4.18136e-18)
(36.9547 15.8283 4.52987e-18)
(36.7776 17.162 2.44227e-18)
(36.6049 18.5886 0)
(36.4545 20.1162 -9.28192e-19)
(36.3558 21.7707 2.16644e-18)
(36.2869 23.5074 0)
(36.2756 25.4251 2.12935e-20)
(36.1958 27.2827 -2.66795e-19)
(36.5154 29.5595 0)
(34.949 30.7335 0)
(25.6498 24.4305 -1.14544e-18)
(39.6964 -0.0623439 1.96418e-18)
(40.0969 -0.106365 -2.13908e-18)
(40.1154 -0.0489831 0)
(40.1248 0.0116884 -4.0421e-20)
(40.1274 0.0878819 2.91154e-18)
(40.1361 0.197329 9.98775e-20)
(40.164 0.306044 -3.99921e-23)
(40.1998 0.436085 -1.23737e-19)
(40.2384 0.562982 0)
(40.2842 0.709502 -4.74881e-18)
(40.3184 0.876927 -1.70682e-19)
(40.3492 1.05353 3.04464e-18)
(40.378 1.24661 3.19079e-18)
(40.3958 1.44904 1.94505e-18)
(40.4128 1.66826 -2.33313e-21)
(40.4214 1.91093 3.00155e-19)
(40.4162 2.16561 -2.68808e-18)
(40.4233 2.44144 0)
(40.4156 2.71734 0)
(40.382 2.99823 3.8992e-18)
(40.3401 3.29789 5.46755e-19)
(40.2885 3.62942 -3.02167e-18)
(40.229 3.98178 -2.71753e-18)
(40.1417 4.34158 -3.06019e-18)
(40.0152 4.6772 -2.55882e-18)
(39.899 5.05248 -9.86107e-19)
(39.7893 5.49942 -1.16941e-18)
(39.6625 6.01201 -1.25486e-18)
(39.5222 6.56388 3.64121e-18)
(39.3711 7.14874 2.31905e-19)
(39.224 7.77879 -4.59084e-18)
(39.1108 8.47505 4.14455e-18)
(39.0231 9.22941 3.19123e-18)
(38.903 10.0338 -3.78077e-18)
(38.7155 10.897 3.33029e-19)
(38.5218 11.8246 -3.09261e-18)
(38.3805 12.8418 2.84894e-18)
(38.2518 13.9396 -2.00244e-18)
(38.137 15.0771 -1.64733e-18)
(38.0598 16.2921 -1.81494e-18)
(37.996 17.597 0)
(37.9528 18.9944 0)
(37.9485 20.4635 -5.31056e-19)
(38.009 22.0569 5.03681e-19)
(38.1304 23.7114 1.41044e-19)
(38.3341 25.5195 -2.19876e-20)
(38.5351 27.3126 1.96071e-18)
(39.0571 29.4468 0)
(37.539 30.1856 -3.5524e-18)
(26.8652 23.4307 1.36572e-18)
(39.5765 -0.0572572 -2.68536e-20)
(40.165 -0.146959 2.17731e-18)
(40.1829 -0.0492176 2.33329e-18)
(40.1961 0.020441 -1.61788e-22)
(40.2117 0.111589 -1.56339e-19)
(40.2399 0.231754 1.00082e-19)
(40.2834 0.391879 0)
(40.3295 0.538599 0)
(40.3456 0.719287 0)
(40.3567 0.896048 2.61058e-18)
(40.3916 1.07514 -1.70445e-19)
(40.433 1.2609 -3.06495e-18)
(40.4724 1.4608 -1.51929e-18)
(40.4986 1.66151 3.57876e-18)
(40.5222 1.86513 2.12242e-18)
(40.5402 2.07805 -3.01061e-19)
(40.5372 2.29165 5.71119e-18)
(40.5312 2.54338 -2.98456e-18)
(40.5247 2.83168 -3.34998e-18)
(40.4937 3.13172 0)
(40.4596 3.44271 -2.10941e-18)
(40.4285 3.77639 2.44103e-18)
(40.384 4.13865 2.75015e-18)
(40.3379 4.54799 3.09882e-18)
(40.3198 5.03809 2.63259e-18)
(40.2201 5.51474 -4.31486e-19)
(40.1333 6.00257 -5.36516e-19)
(40.0757 6.51379 -1.72861e-18)
(39.9988 7.07335 -6.73269e-19)
(39.9061 7.67514 2.37233e-18)
(39.8109 8.33139 8.34637e-19)
(39.659 9.00932 0)
(39.4903 9.75121 -4.03147e-18)
(39.3853 10.5558 1.08259e-18)
(39.3872 11.4168 2.36507e-18)
(39.3466 12.3241 3.58446e-18)
(39.2566 13.2702 -1.6407e-18)
(39.2234 14.2986 -1.4135e-18)
(39.211 15.4302 4.10816e-19)
(39.2282 16.6424 0)
(39.2956 17.9088 -8.38534e-19)
(39.3939 19.2472 0)
(39.5481 20.6671 0)
(39.782 22.1786 1.20586e-19)
(40.0898 23.7446 1.75509e-19)
(40.4759 25.4581 -1.45728e-18)
(40.8548 27.1714 -1.44403e-18)
(41.4206 29.0062 0)
(39.7543 29.3135 -2.41318e-18)
(27.6717 22.0509 2.5973e-18)
(39.46 -0.0564928 -1.95094e-18)
(40.2253 -0.10562 1.65161e-20)
(40.2258 0.0310125 -2.40143e-18)
(40.2473 0.118976 -2.52987e-18)
(40.2593 0.231788 -2.83543e-18)
(40.2843 0.362275 -1.53774e-18)
(40.3331 0.489503 -1.10824e-19)
(40.385 0.62999 0)
(40.4375 0.777543 2.1777e-18)
(40.4843 0.941347 2.57673e-18)
(40.5302 1.1212 -1.69791e-19)
(40.5745 1.31098 -1.90371e-19)
(40.618 1.51869 -1.49593e-18)
(40.6522 1.74387 -2.67136e-19)
(40.6865 1.98448 2.28447e-19)
(40.7136 2.24718 -2.97823e-19)
(40.7345 2.51165 2.73426e-19)
(40.7498 2.77002 3.3845e-18)
(40.7624 3.05216 4.61044e-18)
(40.7585 3.35393 0)
(40.7333 3.68856 6.87105e-20)
(40.7081 4.05181 0)
(40.6853 4.43531 0)
(40.6431 4.81342 -7.39715e-19)
(40.5581 5.17759 2.42826e-18)
(40.5182 5.60912 2.35307e-18)
(40.462 6.09798 -5.12851e-19)
(40.3991 6.63915 2.36582e-18)
(40.3385 7.21432 0)
(40.272 7.82361 0)
(40.2227 8.48149 1.44515e-18)
(40.217 9.20275 0)
(40.244 9.96561 1.04706e-18)
(40.2307 10.7765 1.92754e-18)
(40.1627 11.6458 -3.27572e-18)
(40.13 12.5797 -3.35156e-18)
(40.1596 13.5845 3.02992e-18)
(40.213 14.6505 -1.10909e-18)
(40.3091 15.7316 3.37576e-19)
(40.4642 16.8782 3.99809e-19)
(40.6512 18.1017 1.07511e-18)
(40.8845 19.3884 0)
(41.1812 20.7208 0)
(41.5663 22.1397 -3.33952e-19)
(42.0417 23.5832 -1.46708e-18)
(42.5986 25.1373 -7.42189e-19)
(43.2101 26.768 -3.23729e-18)
(43.7971 28.345 3.57629e-18)
(41.8138 28.1941 5.51942e-18)
(28.0938 20.3818 0)
(39.3499 -0.0300008 -7.42991e-21)
(40.3238 -0.115565 2.09159e-18)
(40.3348 0.0363614 2.27531e-18)
(40.3664 0.121186 2.62707e-18)
(40.3917 0.247123 0)
(40.4391 0.406007 1.79832e-20)
(40.4964 0.584254 0)
(40.5493 0.750268 -1.22324e-19)
(40.5812 0.941715 -4.21367e-18)
(40.605 1.13207 -2.58846e-18)
(40.6484 1.31932 1.68587e-19)
(40.703 1.51072 1.88483e-19)
(40.7542 1.70879 -2.09762e-19)
(40.7919 1.90968 -1.89337e-18)
(40.8308 2.12033 -4.44913e-18)
(40.862 2.34834 2.92342e-19)
(40.8769 2.60191 -5.22699e-18)
(40.8931 2.87666 3.6642e-19)
(40.9079 3.17465 -1.65889e-18)
(40.918 3.47772 -9.13513e-19)
(40.918 3.79747 2.58929e-18)
(40.9132 4.15341 0)
(40.9059 4.53989 0)
(40.9074 4.98275 -1.3741e-18)
(40.9503 5.50733 -1.62398e-18)
(40.9108 6.01775 2.11375e-18)
(40.9018 6.53659 -4.84617e-19)
(40.9165 7.07471 0)
(40.9232 7.65451 5.77306e-19)
(40.9166 8.28051 -6.43039e-19)
(40.8969 8.94527 -1.4688e-18)
(40.8492 9.63495 -2.07506e-18)
(40.7988 10.377 8.01955e-19)
(40.831 11.1823 -7.80047e-19)
(40.9773 12.0313 8.68013e-19)
(41.0892 12.9199 0)
(41.1699 13.8335 -9.32863e-19)
(41.3253 14.8197 -1.05264e-18)
(41.5239 15.8973 6.33296e-19)
(41.7646 17.0177 5.39856e-19)
(42.0685 18.1663 -2.20069e-19)
(42.4223 19.3598 0)
(42.8526 20.6111 0)
(43.3785 21.9073 -1.42595e-18)
(43.99 23.2189 3.09018e-18)
(44.6796 24.6409 7.99317e-19)
(45.3724 26.1491 2.11996e-18)
(45.8119 27.3641 -4.61126e-18)
(43.3 26.7654 5.43138e-19)
(27.9828 18.4095 -7.93669e-18)
(39.2652 -0.0267199 1.89068e-18)
(40.4144 -0.0484105 -3.60178e-20)
(40.4103 0.157822 -2.3208e-18)
(40.4551 0.247056 1.26698e-18)
(40.4726 0.391114 0)
(40.5173 0.52937 1.63271e-18)
(40.5801 0.66548 -5.46156e-20)
(40.6417 0.820919 -1.92444e-18)
(40.7028 0.981841 2.17205e-18)
(40.7584 1.15456 0)
(40.8202 1.34599 1.67027e-19)
(40.8868 1.55735 1.28491e-18)
(40.9498 1.78606 -1.84364e-18)
(41.0013 2.0285 2.30622e-19)
(41.054 2.27419 2.3404e-18)
(41.1082 2.53485 -2.86417e-19)
(41.1531 2.79567 1.66227e-18)
(41.198 3.06736 -3.56001e-19)
(41.2353 3.37873 3.96404e-19)
(41.2635 3.70822 1.27852e-18)
(41.2719 4.06788 1.66245e-18)
(41.2822 4.44533 1.0419e-21)
(41.301 4.83881 6.0548e-19)
(41.2975 5.21468 2.34137e-18)
(41.2563 5.57666 0)
(41.2856 6.03642 -1.69608e-18)
(41.2903 6.55862 4.39982e-19)
(41.3074 7.12528 -1.31675e-20)
(41.3357 7.7159 -7.19796e-20)
(41.3644 8.33514 5.73595e-19)
(41.4325 9.0034 -1.08502e-18)
(41.5452 9.73085 1.37678e-18)
(41.6899 10.487 0)
(41.7966 11.2799 0)
(41.8592 12.121 0)
(41.9912 13.0153 0)
(42.1944 13.969 -4.61392e-19)
(42.429 14.9529 7.7531e-19)
(42.7279 15.9349 0)
(43.0915 16.9698 3.71712e-20)
(43.4991 18.0581 -2.77507e-19)
(43.9626 19.172 -1.8318e-18)
(44.4995 20.2994 1.00336e-18)
(45.1293 21.4783 0)
(45.8489 22.645 1.43195e-18)
(46.6289 23.8837 -5.42797e-18)
(47.4393 25.2577 3.84241e-18)
(47.724 26.1899 3.20216e-18)
(44.4729 25.0906 1.20766e-17)
(27.3039 16.1643 -9.12192e-18)
(39.1818 -0.0181273 -1.88823e-18)
(40.5566 -0.0568112 -4.10672e-18)
(40.5653 0.151674 3.56316e-20)
(40.6246 0.236598 -1.27267e-18)
(40.6588 0.403765 1.3477e-18)
(40.7194 0.570905 -4.85777e-20)
(40.7845 0.758927 1.76599e-18)
(40.8451 0.939998 1.93215e-18)
(40.8932 1.13548 2.17527e-18)
(40.9264 1.3326 -7.39852e-20)
(40.9775 1.52066 -1.29969e-18)
(41.0503 1.70962 -3.54617e-20)
(41.1244 1.90642 1.64534e-18)
(41.1843 2.12164 0)
(41.241 2.35377 0)
(41.2931 2.61027 1.39135e-19)
(41.3348 2.88441 2.3185e-18)
(41.3831 3.16396 0)
(41.4318 3.46624 1.89842e-19)
(41.4872 3.7762 -1.94584e-18)
(41.5261 4.11554 -1.6923e-18)
(41.5609 4.48577 7.32141e-19)
(41.6054 4.88715 0)
(41.6808 5.37084 -1.30221e-18)
(41.788 5.90965 -3.36116e-19)
(41.8303 6.42853 3.74825e-19)
(41.8968 6.94279 0)
(41.9845 7.49078 0)
(42.076 8.08016 -5.99856e-19)
(42.1659 8.71237 -3.63407e-19)
(42.2255 9.36575 1.56983e-18)
(42.2831 10.0407 -5.23231e-19)
(42.3531 10.7624 -4.43237e-19)
(42.5257 11.539 8.89836e-19)
(42.8153 12.3434 -8.55803e-19)
(43.0692 13.1702 4.86751e-20)
(43.3074 14.0064 2.88935e-19)
(43.6366 14.9015 -8.60018e-20)
(44.015 15.8681 -6.68646e-19)
(44.435 16.8442 5.00216e-20)
(44.9194 17.8191 -3.31473e-19)
(45.4613 18.8149 9.50038e-19)
(46.0801 19.8397 1.87875e-18)
(46.7901 20.8705 -2.08707e-18)
(47.5752 21.8859 1.42894e-18)
(48.4244 22.9887 0)
(49.187 24.196 2.50148e-18)
(49.1145 24.7195 4.12322e-18)
(44.8556 23.1421 -8.38571e-18)
(25.8852 13.6789 -2.69427e-18)
(39.1363 0.00328405 1.83708e-18)
(40.6683 0.0102886 2.02827e-18)
(40.6785 0.275995 1.766e-20)
(40.7505 0.353363 -1.23743e-18)
(40.7727 0.543233 -2.77064e-18)
(40.8251 0.674336 1.5705e-18)
(40.895 0.815279 -3.45879e-18)
(40.9645 0.980674 9.35536e-19)
(41.0455 1.14874 -2.11764e-18)
(41.1183 1.33242 -1.22213e-18)
(41.1943 1.54249 2.74045e-18)
(41.2763 1.76873 -1.62826e-18)
(41.3592 2.00337 -1.56098e-18)
(41.4389 2.23942 6.23702e-22)
(41.52 2.48037 -8.32019e-19)
(41.6017 2.73565 1.05332e-18)
(41.6802 3.01423 -1.21874e-18)
(41.7629 3.30971 0)
(41.8371 3.64317 0)
(41.9097 3.99123 0)
(41.9754 4.3573 -2.16806e-19)
(42.0265 4.75388 -7.57374e-19)
(42.1037 5.14469 -7.34258e-19)
(42.1533 5.51779 -2.87621e-19)
(42.167 5.89259 0)
(42.257 6.3582 0)
(42.3371 6.88083 6.35698e-19)
(42.4384 7.44318 -3.51769e-19)
(42.5524 8.0295 -8.70625e-20)
(42.6788 8.635 1.05869e-19)
(42.875 9.29341 5.45713e-20)
(43.0991 9.99644 -1.70872e-19)
(43.359 10.7188 1.32045e-19)
(43.5884 11.4621 -2.81087e-19)
(43.7782 12.2417 2.62079e-19)
(44.0581 13.0562 1.91125e-19)
(44.4051 13.9159 1.64957e-19)
(44.782 14.777 2.30371e-19)
(45.225 15.6187 1.72732e-19)
(45.7325 16.4973 6.43845e-19)
(46.2863 17.4031 -3.13937e-19)
(46.8913 18.3026 1.73047e-18)
(47.5688 19.1887 -1.92482e-18)
(48.3268 20.0944 0)
(49.1629 20.9696 0)
(50.0571 21.952 0)
(50.6966 22.8264 0)
(50.2974 23.1377 0)
(44.7361 20.9993 -5.02398e-18)
(23.6809 11.019 8.24964e-18)
(39.1259 0.0242451 -1.81891e-18)
(40.8566 -0.016967 0)
(40.8819 0.255918 0)
(40.9455 0.310695 1.25971e-18)
(40.9885 0.534817 1.35652e-18)
(41.057 0.699992 -1.57404e-18)
(41.1309 0.891885 1.74495e-18)
(41.1961 1.07542 -9.38517e-19)
(41.2502 1.27045 1.01675e-18)
(41.3005 1.45732 1.22472e-18)
(41.3699 1.63872 -1.27921e-18)
(41.4687 1.82836 1.28552e-18)
(41.563 2.03857 2.32575e-18)
(41.6483 2.27173 0)
(41.7357 2.51927 9.58692e-19)
(41.8172 2.78116 -1.18709e-18)
(41.8942 3.05049 2.14518e-21)
(41.9811 3.33156 -1.20378e-18)
(42.0815 3.63543 1.48664e-18)
(42.179 3.95942 0)
(42.2752 4.3017 0)
(42.3702 4.67829 8.30136e-19)
(42.4803 5.09978 1.13152e-19)
(42.6401 5.59764 -9.38872e-19)
(42.8303 6.14695 -2.5917e-19)
(42.9523 6.66053 7.97201e-19)
(43.0967 7.16932 -1.15858e-18)
(43.2661 7.7062 7.91313e-19)
(43.4394 8.27858 -4.4586e-19)
(43.606 8.88605 2.77401e-19)
(43.7521 9.5131 -1.40706e-19)
(43.9116 10.1456 4.85613e-19)
(44.0937 10.8161 4.98503e-20)
(44.3881 11.5307 1.35618e-19)
(44.7932 12.2591 0)
(45.1538 12.9939 -2.20807e-19)
(45.5083 13.7163 -1.82614e-19)
(45.961 14.4834 1.88098e-19)
(46.4598 15.3008 1.02599e-18)
(46.9892 16.1009 -9.23861e-19)
(47.5719 16.8756 -2.8802e-19)
(48.2103 17.6548 -2.10326e-18)
(48.9131 18.4382 5.10033e-18)
(49.6974 19.1958 5.01459e-19)
(50.5422 19.9263 6.0133e-19)
(51.4588 20.8138 -2.22441e-18)
(51.8235 21.3618 0)
(50.7288 21.3655 4.47094e-18)
(43.5578 18.6502 -2.34305e-18)
(20.5818 8.30332 0)
(39.1389 0.0368057 6.82811e-21)
(40.9881 0.0341899 -3.93343e-23)
(41.0305 0.371337 -1.09836e-18)
(41.0969 0.419499 0)
(41.1217 0.640602 -2.09585e-20)
(41.1831 0.76207 -7.12904e-19)
(41.2594 0.916032 0)
(41.3477 1.08207 8.99983e-19)
(41.4448 1.25834 -1.08244e-18)
(41.5281 1.4509 6.98319e-20)
(41.6145 1.66538 1.20824e-18)
(41.7132 1.88161 -6.29033e-19)
(41.8251 2.09613 -8.54089e-19)
(41.9328 2.32029 0)
(42.0486 2.56034 0)
(42.1731 2.82521 0)
(42.2908 3.11632 -9.07459e-19)
(42.4207 3.42056 1.20869e-18)
(42.5484 3.76056 -2.09018e-18)
(42.6763 4.10388 1.68113e-19)
(42.7873 4.47201 -3.68006e-19)
(42.8931 4.86962 -6.3421e-19)
(43.0374 5.2526 1.66479e-18)
(43.1399 5.61899 1.34537e-18)
(43.2274 6.00149 0)
(43.386 6.45326 -6.20646e-19)
(43.5504 6.96758 1.03461e-18)
(43.7364 7.51481 -6.17831e-19)
(43.9336 8.07854 1.99872e-19)
(44.1669 8.65225 -9.87092e-20)
(44.4633 9.26314 4.06249e-20)
(44.7887 9.91381 -1.63678e-20)
(45.1465 10.5804 -1.79245e-20)
(45.4744 11.2506 3.64382e-19)
(45.7558 11.9407 2.39128e-19)
(46.1389 12.6488 -6.41997e-19)
(46.5796 13.3946 9.77233e-19)
(47.0406 14.1186 -7.76899e-19)
(47.5569 14.804 2.01103e-20)
(48.1301 15.5059 0)
(48.746 16.2143 1.58394e-18)
(49.401 16.8952 1.2176e-18)
(50.1266 17.5443 2.05565e-19)
(50.9122 18.1858 -3.72218e-18)
(51.7656 18.8065 -1.96646e-19)
(52.576 19.5119 -2.71182e-18)
(52.6746 19.7781 0)
(50.797 19.4821 4.6942e-18)
(41.6539 16.1433 -7.88671e-18)
(16.5199 5.54033 0)
(39.1667 0.0532217 0)
(41.1992 -0.0133237 0)
(41.255 0.311022 5.72904e-19)
(41.3173 0.351482 -3.7308e-20)
(41.365 0.613691 6.74761e-19)
(41.4389 0.764826 7.37705e-19)
(41.5159 0.953281 0)
(41.5823 1.13741 -9.02047e-19)
(41.654 1.31918 9.68356e-19)
(41.7286 1.49601 0)
(41.8266 1.67506 -1.79619e-18)
(41.9444 1.87241 -2.61932e-20)
(42.0664 2.08773 -8.87157e-20)
(42.1835 2.31803 9.89125e-20)
(42.2963 2.55336 0)
(42.412 2.79674 0)
(42.5335 3.05781 6.22126e-19)
(42.6678 3.32994 4.50347e-19)
(42.817 3.63153 5.69723e-20)
(42.974 3.95863 7.56187e-20)
(43.1483 4.29154 -1.6412e-19)
(43.2982 4.66459 8.89912e-20)
(43.4763 5.08674 -7.76722e-19)
(43.7233 5.57739 -3.15969e-19)
(43.977 6.11042 2.21839e-19)
(44.1743 6.60666 2.9823e-19)
(44.3984 7.1057 -3.22072e-19)
(44.6527 7.61983 -1.85091e-19)
(44.9074 8.16204 0)
(45.1395 8.72861 0)
(45.3648 9.30729 0)
(45.6047 9.88217 -2.92862e-20)
(45.8689 10.4825 -1.52189e-19)
(46.244 11.116 -1.32713e-19)
(46.7249 11.7544 3.73664e-19)
(47.1448 12.3844 5.2551e-19)
(47.5639 12.9783 -2.07015e-19)
(48.0792 13.6053 8.84395e-19)
(48.6324 14.2684 -5.39456e-19)
(49.2001 14.8974 -8.14212e-19)
(49.8042 15.4836 -1.06788e-18)
(50.4603 16.0613 1.19071e-18)
(51.1609 16.623 0)
(51.9318 17.1416 2.14121e-18)
(52.7991 17.6979 -1.17217e-18)
(53.3127 18.1 1.50992e-18)
(53.0328 18.1679 0)
(49.8348 17.421 -2.32819e-18)
(38.2635 13.389 1.37985e-18)
(11.3222 2.82403 0)
(39.2018 0.0622945 4.20424e-19)
(41.3872 0.0414295 0)
(41.4168 0.411067 1.06192e-18)
(41.4815 0.43904 -5.79095e-19)
(41.5095 0.677213 -6.55187e-19)
(41.5791 0.784615 2.22455e-20)
(41.6663 0.951406 -2.47577e-20)
(41.771 1.10986 0)
(41.8754 1.28337 -9.40598e-19)
(41.9769 1.46917 4.82789e-19)
(42.0796 1.66711 5.859e-19)
(42.2088 1.85955 -6.80857e-19)
(42.3517 2.05774 3.34921e-19)
(42.4992 2.27622 9.29652e-20)
(42.663 2.51359 -5.11277e-20)
(42.8265 2.77445 0)
(42.9871 3.05457 5.42816e-19)
(43.161 3.35261 -5.84699e-19)
(43.3417 3.66879 1.23585e-19)
(43.5136 4.00421 -4.68554e-21)
(43.6799 4.37096 -7.43023e-20)
(43.855 4.75344 0)
(44.0535 5.1179 -6.89531e-20)
(44.1997 5.47099 -1.73356e-19)
(44.3629 5.83439 -3.1971e-19)
(44.5836 6.26431 -2.99815e-19)
(44.8345 6.74338 0)
(45.0952 7.25178 1.04466e-19)
(45.3652 7.78444 -3.66471e-20)
(45.6923 8.31645 3.12317e-20)
(46.0652 8.87187 -2.27143e-19)
(46.461 9.46399 -1.6522e-19)
(46.8889 10.0638 3.68973e-19)
(47.2787 10.6528 -1.35368e-19)
(47.6054 11.2436 -3.76912e-19)
(48.0403 11.8413 -2.04833e-19)
(48.5248 12.478 -3.57516e-19)
(49.0157 13.0782 0)
(49.5447 13.6191 -7.31637e-19)
(50.1146 14.1533 1.61764e-18)
(50.72 14.6826 1.07278e-18)
(51.3487 15.1734 -1.31251e-18)
(52.0458 15.6206 1.82941e-18)
(52.7938 16.0626 -9.35808e-19)
(53.5776 16.5052 2.47048e-18)
(53.7659 16.6424 2.00988e-20)
(52.8883 16.4744 0)
(48.181 15.1374 4.7982e-18)
(34.11 10.4027 -4.10442e-18)
(6.52853 0.607188 -1.51805e-18)
(39.2402 0.0741877 -4.24888e-19)
(41.6056 -0.0216734 4.6024e-19)
(41.6728 0.344327 -5.22055e-19)
(41.7274 0.358782 5.70752e-19)
(41.767 0.638689 3.14349e-19)
(41.8417 0.761749 2.18503e-20)
(41.9174 0.939237 -1.20976e-20)
(41.9926 1.11238 0)
(42.0901 1.2752 4.28575e-19)
(42.1869 1.43433 -7.34194e-19)
(42.3128 1.60806 0)
(42.4532 1.80016 3.70562e-20)
(42.6102 1.99841 -9.80294e-20)
(42.7553 2.20225 -2.96747e-19)
(42.9041 2.41743 4.10797e-19)
(43.0731 2.63837 -2.41298e-21)
(43.2476 2.88062 -5.47202e-20)
(43.4337 3.13658 0)
(43.6376 3.4301 2.78578e-19)
(43.8621 3.72693 -2.50802e-19)
(44.0897 4.04029 3.19112e-20)
(44.302 4.40409 0)
(44.5495 4.8112 0)
(44.8859 5.27588 1.63914e-19)
(45.1868 5.78377 -1.87603e-20)
(45.4445 6.25534 7.40449e-20)
(45.7173 6.73266 -1.62807e-20)
(46.031 7.20417 3.06459e-21)
(46.3584 7.69491 1.83246e-21)
(46.6393 8.21896 3.03197e-20)
(46.9188 8.75048 1.20911e-19)
(47.215 9.26616 -2.72143e-19)
(47.5277 9.79202 2.07784e-19)
(47.9412 10.3446 -2.22105e-19)
(48.4603 10.8995 -2.96908e-19)
(48.9009 11.4362 -3.26211e-19)
(49.3383 11.9136 0)
(49.8594 12.4121 9.49644e-19)
(50.4034 12.9409 -3.58214e-19)
(50.9497 13.4349 -9.17339e-19)
(51.5146 13.8693 1.13542e-18)
(52.1291 14.2839 -4.98086e-20)
(52.7678 14.6775 -9.55821e-19)
(53.5406 15.0848 -2.97681e-20)
(53.9544 15.2812 -1.27729e-18)
(53.8388 15.2825 -3.33192e-18)
(51.96 14.7417 1.89339e-18)
(45.0628 12.6937 0)
(28.0808 7.10065 -2.72223e-18)
(3.64339 -0.326146 5.2237e-18)
(39.2904 0.0807748 -8.06855e-22)
(41.798 0.0424947 -4.63238e-19)
(41.8314 0.406616 1.2229e-19)
(41.8796 0.409956 4.41484e-21)
(41.9079 0.664355 -3.14476e-19)
(41.9807 0.752919 0)
(42.0741 0.910042 0)
(42.1845 1.04448 1.27662e-20)
(42.2955 1.19734 -6.94421e-19)
(42.4218 1.36005 2.49851e-19)
(42.5503 1.5206 -1.64056e-20)
(42.7017 1.68771 3.59808e-20)
(42.8821 1.8669 -2.05516e-19)
(43.0856 2.06286 2.01693e-19)
(43.285 2.28492 -5.35772e-19)
(43.4882 2.52473 8.94065e-20)
(43.7012 2.78587 -9.2713e-20)
(43.9276 3.05358 -2.39645e-20)
(44.1587 3.347 2.70284e-19)
(44.3798 3.67642 1.71712e-19)
(44.6058 4.01631 3.76588e-21)
(44.8428 4.36605 2.56435e-20)
(45.0849 4.71099 0)
(45.2679 5.04054 8.0807e-20)
(45.5115 5.36592 3.97501e-21)
(45.7924 5.77592 -4.31253e-20)
(46.1133 6.20984 8.62346e-22)
(46.4229 6.68321 2.99928e-20)
(46.7431 7.17267 0)
(47.1293 7.65698 3.74785e-20)
(47.5473 8.15533 2.27737e-19)
(47.9893 8.69307 2.3532e-19)
(48.4636 9.23367 -1.28762e-19)
(48.8871 9.75367 3.55871e-19)
(49.2203 10.255 -3.18828e-19)
(49.6587 10.7576 -2.17503e-19)
(50.1456 11.3102 0)
(50.6221 11.8225 -6.32037e-19)
(51.1218 12.2559 -4.37752e-19)
(51.6372 12.6553 4.88979e-19)
(52.181 13.0559 -6.16284e-19)
(52.7272 13.4146 7.58572e-19)
(53.359 13.7439 0)
(53.9784 14.0474 5.27972e-19)
(54.0997 14.1223 0)
(53.4419 13.9415 8.40698e-19)
(50.1004 13.0276 -1.92095e-18)
(40.6459 10.2422 1.09644e-18)
(21.0131 4.07731 0)
(1.3047 -0.428812 3.34916e-19)
(39.3333 0.104921 -9.90835e-23)
(42.0482 -0.0156881 -1.09446e-22)
(42.097 0.360466 -1.26031e-19)
(42.127 0.335524 -5.36998e-22)
(42.1571 0.60125 -4.12863e-21)
(42.2193 0.689773 -6.50486e-22)
(42.2919 0.860079 7.24062e-22)
(42.3783 0.999063 -1.55632e-21)
(42.486 1.13273 2.24288e-19)
(42.5988 1.26542 3.67893e-21)
(42.7536 1.41214 1.97417e-21)
(42.922 1.56714 -4.31541e-21)
(43.0895 1.72922 -1.49143e-19)
(43.2729 1.89895 1.61403e-19)
(43.4792 2.07167 1.78174e-19)
(43.6957 2.26338 -8.96677e-20)
(43.9204 2.47641 8.99041e-20)
(44.165 2.71494 2.64766e-21)
(44.4352 2.97109 2.59041e-21)
(44.7228 3.23822 0)
(45.0062 3.53854 2.21215e-21)
(45.2826 3.87999 9.22713e-22)
(45.5983 4.25041 -1.03143e-21)
(46.0088 4.69203 0)
(46.3487 5.17751 0)
(46.6618 5.60589 4.34052e-21)
(46.9653 6.06049 0)
(47.3249 6.49677 -3.00329e-20)
(47.6957 6.94571 0)
(48.0213 7.42307 3.05758e-21)
(48.332 7.90948 -1.16851e-19)
(48.6625 8.3671 9.42725e-21)
(48.9879 8.83273 -2.15107e-19)
(49.3996 9.3212 2.11486e-20)
(49.9253 9.81893 1.46359e-19)
(50.3687 10.2968 2.44993e-19)
(50.7951 10.6936 -9.32086e-21)
(51.2836 11.0942 0)
(51.7683 11.5264 -7.06825e-21)
(52.2496 11.942 8.61369e-21)
(52.7333 12.2791 0)
(53.2759 12.6023 -1.24682e-20)
(53.9082 12.9659 -5.85682e-20)
(54.1538 13.1191 -4.74183e-19)
(53.9566 13.0823 -1.05553e-20)
(52.3149 12.7405 0)
(46.96 11.4014 0)
(34.0689 8.02198 1.50427e-19)
(10.4705 1.51953 -1.48796e-19)
(-0.618097 -0.0523184 3.39718e-19)
(39.4073 0.0807959 -1.99098e-19)
(42.1871 0.0277745 -2.19108e-19)
(42.2435 0.411483 -1.20275e-19)
(42.2709 0.387463 -1.36835e-19)
(42.2855 0.626657 -1.3966e-19)
(42.348 0.674545 1.58593e-19)
(42.4258 0.802778 0)
(42.5261 0.907521 0)
(42.6499 1.02026 -1.06633e-19)
(42.7799 1.13716 -3.67848e-21)
(42.9254 1.25742 1.16182e-19)
(43.1156 1.38141 8.53317e-21)
(43.3384 1.52099 1.31161e-19)
(43.5643 1.68353 -1.36844e-19)
(43.7972 1.87095 -1.56692e-19)
(44.0497 2.06811 0)
(44.3101 2.28564 0)
(44.5913 2.51547 -2.64725e-21)
(44.8752 2.78776 -2.58999e-21)
(45.1584 3.08054 6.4963e-20)
(45.4381 3.38352 -2.21175e-21)
(45.7433 3.70284 0)
(46.0245 4.03341 0)
(46.2582 4.31993 -1.8999e-21)
(46.5698 4.6205 -3.01162e-20)
(46.9081 5.01625 8.43535e-21)
(47.2842 5.40538 0)
(47.6377 5.84831 -6.11181e-20)
(48.0016 6.30026 0)
(48.417 6.74784 -3.05681e-21)
(48.8606 7.20173 0)
(49.322 7.69838 0)
(49.8229 8.19607 6.64534e-20)
(50.264 8.66874 8.64614e-20)
(50.5841 9.10546 0)
(50.9876 9.54192 0)
(51.446 10.0466 9.31624e-21)
(51.8751 10.5198 0)
(52.3243 10.9019 7.06389e-21)
(52.7657 11.2189 -2.93976e-19)
(53.233 11.5653 3.5127e-19)
(53.7474 11.9235 3.85759e-20)
(54.1181 12.1656 2.73998e-20)
(54.1328 12.2246 -5.22747e-19)
(53.346 12.1784 -3.42229e-19)
(50.2915 11.5194 1.94802e-18)
(42.0729 9.58415 -8.85627e-19)
(25.2649 5.32552 -1.03728e-18)
(4.52274 0.515577 8.53659e-19)
(-1.55064 0.168514 0)
(39.4363 0.0803981 1.98246e-19)
(42.4277 -0.0392379 -2.0977e-19)
(42.4683 0.323036 1.18345e-19)
(42.4765 0.293889 -1.31973e-19)
(42.4913 0.557143 1.48962e-19)
(42.5354 0.607517 -1.63682e-19)
(42.5983 0.744172 -1.10434e-20)
(42.6753 0.833061 1.22958e-20)
(42.7735 0.923475 9.35505e-20)
(42.9095 1.00772 1.44975e-20)
(43.0674 1.10244 -1.23748e-19)
(43.2343 1.20552 -2.59069e-19)
(43.4353 1.31127 1.32988e-19)
(43.6702 1.41729 1.29091e-19)
(43.9146 1.54386 4.61693e-19)
(44.1737 1.69315 -1.76807e-20)
(44.4502 1.86855 1.97357e-20)
(44.7528 2.06182 -1.38199e-19)
(45.0892 2.27101 -1.48991e-20)
(45.4414 2.51415 -4.8245e-20)
(45.7863 2.78986 0)
(46.1144 3.09483 0)
(46.5062 3.43127 0)
(46.9713 3.87216 0)
(47.3604 4.30723 2.548e-20)
(47.7192 4.69767 -1.37597e-19)
(48.0615 5.13163 0)
(48.4587 5.54453 2.08599e-19)
(48.8621 5.96741 0)
(49.2245 6.41409 0)
(49.5649 6.86823 -3.50769e-19)
(49.9176 7.28964 2.30387e-19)
(50.2338 7.7164 -5.49426e-19)
(50.6154 8.16391 1.6124e-19)
(51.1238 8.63667 0)
(51.5714 9.09609 0)
(51.9786 9.45845 3.41522e-19)
(52.4286 9.80781 -1.19384e-18)
(52.8365 10.1864 0)
(53.2366 10.589 -9.01338e-19)
(53.6616 10.9181 1.35862e-18)
(54.156 11.2718 -1.52647e-18)
(54.271 11.4239 8.87925e-19)
(53.9636 11.5287 -1.16518e-18)
(52.177 11.2713 2.97874e-18)
(46.8318 10.23 -2.65199e-18)
(34.8043 7.48007 1.75354e-18)
(13.4797 2.39532 -3.90714e-18)
(0.623744 0.263076 4.65238e-18)
(-2.14251 0.149016 -2.99641e-18)
(39.5417 0.115626 3.83244e-19)
(42.6192 0.0548804 5.25362e-21)
(42.6238 0.426249 0)
(42.5911 0.365774 2.66379e-19)
(42.5848 0.581351 6.05389e-19)
(42.6125 0.603341 -2.03318e-20)
(42.6704 0.700515 0)
(42.7536 0.753487 0)
(42.8666 0.818438 2.58409e-20)
(42.9882 0.875836 -2.87863e-20)
(43.1636 0.920756 4.8597e-19)
(43.3773 0.985805 -2.55972e-19)
(43.6004 1.07298 -2.72247e-19)
(43.8544 1.17887 2.78892e-19)
(44.1334 1.29716 -2.90441e-19)
(44.4294 1.43362 -3.34644e-20)
(44.7412 1.59259 3.11928e-19)
(45.07 1.78461 3.9455e-19)
(45.4074 2.00548 0)
(45.7496 2.25071 -9.05901e-20)
(46.0943 2.51262 -5.85973e-20)
(46.4652 2.80661 0)
(46.7866 3.09768 -4.31029e-20)
(47.0807 3.33315 0)
(47.4468 3.65726 0)
(47.8507 4.02659 1.3718e-19)
(48.272 4.3932 1.15317e-19)
(48.6647 4.80238 3.34042e-19)
(49.0603 5.23102 0)
(49.4998 5.6536 0)
(49.96 6.08516 1.52095e-19)
(50.4302 6.5597 2.20611e-19)
(50.9543 7.03601 9.26076e-19)
(51.4167 7.49119 3.88787e-20)
(51.7371 7.90149 4.40356e-20)
(52.0984 8.30821 -1.12264e-18)
(52.5183 8.797 -5.61963e-20)
(52.8823 9.27083 1.60208e-18)
(53.2804 9.6695 1.00797e-18)
(53.6791 9.96613 5.8273e-19)
(54.177 10.3882 1.38967e-18)
(54.3618 10.6521 8.55886e-20)
(54.2538 10.7708 -1.90019e-18)
(53.2141 10.7665 -1.13943e-18)
(49.7063 10.2566 -3.30275e-18)
(41.2239 8.5116 3.7504e-18)
(24.7149 4.91779 -1.67478e-18)
(4.89462 0.904909 0)
(-1.87306 0.423421 0)
(-2.25011 0.198777 5.8847e-19)
(39.633 0.122 -1.13288e-18)
(42.8135 0.0185531 -4.20836e-19)
(42.8448 0.379879 4.72809e-19)
(42.7994 0.334858 -1.64467e-20)
(42.7694 0.558911 -1.17238e-18)
(42.7651 0.566654 2.02821e-20)
(42.7772 0.660994 0)
(42.833 0.692541 7.83172e-19)
(42.9213 0.710139 2.59491e-20)
(43.0328 0.742979 -1.07149e-21)
(43.172 0.773314 -1.00721e-18)
(43.3676 0.783547 4.82552e-19)
(43.5989 0.803202 2.36846e-21)
(43.8517 0.838422 -2.42243e-19)
(44.1349 0.89848 0)
(44.4408 0.985079 0)
(44.7705 1.09545 -2.43244e-19)
(45.1378 1.22801 -2.90066e-19)
(45.5386 1.39244 0)
(45.9602 1.59499 9.03061e-20)
(46.3514 1.8305 5.84029e-20)
(46.7413 2.09661 -6.2201e-21)
(47.2121 2.43066 -1.8613e-20)
(47.7224 2.861 1.06299e-19)
(48.1563 3.22253 4.91862e-20)
(48.5632 3.60072 1.03687e-19)
(48.952 4.01342 -3.58441e-19)
(49.3826 4.42058 -3.3592e-19)
(49.8245 4.82499 4.93164e-19)
(50.2152 5.26 -6.40867e-19)
(50.5884 5.69714 0)
(50.9672 6.105 0)
(51.2765 6.517 5.58701e-20)
(51.6303 6.94686 -7.42252e-19)
(52.1192 7.41935 9.81563e-19)
(52.5806 7.89485 1.80549e-18)
(52.9771 8.26743 -6.81531e-19)
(53.4127 8.61473 -1.73409e-18)
(53.7806 8.96664 -2.03322e-18)
(54.1695 9.44134 -1.21157e-18)
(54.4767 9.83362 -7.19327e-20)
(54.5139 9.94735 1.55668e-18)
(53.9499 10.1456 0)
(51.7219 9.98987 1.12712e-18)
(45.714 8.94907 1.30017e-18)
(32.8016 6.50028 1.47566e-18)
(11.1987 2.09465 4.96732e-18)
(0.19549 0.684483 -1.84358e-18)
(-2.98441 0.525697 0)
(-2.07628 0.316309 0)
(39.7881 0.102995 1.73747e-20)
(43.0119 0.125451 8.43295e-19)
(42.9878 0.48297 -4.86799e-19)
(42.8956 0.460164 1.048e-18)
(42.8352 0.656237 6.20663e-19)
(42.8049 0.632677 -1.00788e-22)
(42.8134 0.676345 -2.24549e-20)
(42.8427 0.691107 -7.19164e-19)
(42.901 0.666623 -5.37733e-20)
(43.0231 0.626563 -5.66587e-20)
(43.1777 0.608293 4.92839e-19)
(43.3742 0.601065 6.71062e-20)
(43.6237 0.598167 5.56031e-19)
(43.9043 0.607862 5.71125e-19)
(44.2154 0.636313 -6.64643e-20)
(44.557 0.689362 7.41403e-20)
(44.9163 0.777886 0)
(45.2984 0.903628 2.44214e-19)
(45.6963 1.06138 0)
(46.1024 1.25183 0)
(46.5289 1.47305 0)
(46.9547 1.73177 -2.1784e-20)
(47.324 1.94518 9.25063e-20)
(47.696 2.16793 -1.49537e-19)
(48.135 2.5159 0)
(48.577 2.86963 -1.14499e-19)
(49.0454 3.22104 -4.60982e-19)
(49.4868 3.6105 -7.96322e-19)
(49.9082 4.03301 -7.65216e-19)
(50.3799 4.43994 6.1997e-19)
(50.8551 4.86048 -8.4223e-19)
(51.327 5.32335 4.9987e-19)
(51.8745 5.79108 1.34735e-18)
(52.3679 6.24974 0)
(52.7193 6.66711 1.06058e-18)
(53.0766 7.07521 -2.44386e-18)
(53.4819 7.57341 -8.17873e-20)
(53.7999 8.06707 1.71535e-18)
(54.1818 8.55703 1.01924e-18)
(54.5992 8.96887 0)
(54.7576 9.17349 1.41307e-18)
(54.4548 9.46775 -1.72348e-18)
(53.0111 9.52771 3.89572e-18)
(48.6282 8.91097 0)
(38.4936 7.21229 -5.1622e-18)
(20.3306 3.71412 1.42297e-18)
(3.33586 0.955976 -1.61953e-18)
(-2.27938 0.800099 -1.80431e-18)
(-3.30829 0.623273 3.99675e-18)
(-1.81261 0.372461 7.71194e-22)
(39.958 0.139178 7.3329e-19)
(43.3248 0.143765 -8.11763e-19)
(43.2556 0.509249 9.21954e-19)
(43.1324 0.475046 -2.08801e-18)
(43.0221 0.70012 1.21488e-18)
(42.9299 0.702918 -8.19193e-20)
(42.8672 0.743282 7.80801e-19)
(42.8372 0.71469 0)
(42.8625 0.672587 8.86832e-19)
(42.9372 0.587509 -1.02909e-18)
(43.064 0.490921 2.79502e-21)
(43.2382 0.397371 6.92072e-20)
(43.4691 0.319123 -5.54165e-19)
(43.7509 0.255921 2.68416e-20)
(44.0691 0.220945 -5.32296e-19)
(44.423 0.213838 -7.62972e-20)
(44.8127 0.234312 0)
(45.2459 0.290985 -2.43125e-19)
(45.7193 0.384904 -4.20539e-19)