/*--------------------------------*- C++ -*----------------------------------*\
| =========                 |                                                 |
| \\      /  F ield         | OpenFOAM: The Open Source CFD Toolbox           |
|  \\    /   O peration     | Version:  v1912                                 |
|   \\  /    A nd           | Website:  www.openfoam.com                      |
|    \\/     M anipulation  |                                                 |
\*---------------------------------------------------------------------------*/
FoamFile
{
    version     2.0;
    format      ascii;
    class       volScalarField;
    location    "0.2";
    object      p;
}
// * * * * * * * * * * * * * * * * * * * * * * * * * * * * * * * * * * * * * //

dimensions      [0 2 -2 0 0 0 0];


internalField   nonuniform List<scalar> 
6600
(
44.767
39.8431
37.3883
35.9003
35.2316
34.9036
34.8084
35.1411
35.9507
37.082
38.5393
40.4011
42.6855
45.3498
48.4142
51.8617
55.7214
59.9919
64.6592
69.7419
75.2031
80.9998
87.0568
93.3402
99.9379
106.669
113.389
120.018
126.465
132.574
138.209
143.228
147.411
150.509
152.256
152.301
150.255
145.765
138.446
127.82
113.543
94.8011
71.1417
41.8638
6.29894
-36.3437
-86.2404
-144.315
-211.75
-280.224
41.1346
35.8831
33.8946
31.9601
30.8451
30.1515
29.6606
29.5715
30.0582
30.9183
32.1295
33.6563
35.5505
37.8519
40.5136
43.5328
46.9339
50.7044
54.8189
59.3183
64.145
69.2693
74.6486
80.0569
85.548
91.2267
96.8884
102.273
107.376
112.117
116.235
119.526
121.826
122.889
122.451
120.148
115.587
108.413
98.2288
84.5493
66.9202
44.7066
17.3683
-15.7504
-55.3014
-102.06
-156.15
-217.846
-287.433
-355.894
36.1221
30.2925
29.0777
26.8423
25.4267
24.4643
23.8172
23.5495
23.6379
24.1794
25.1135
26.3916
28.0041
29.9667
32.284
34.9521
37.9551
41.2823
44.9262
48.8734
53.0836
57.5273
62.1466
66.7694
71.3692
75.9742
80.4739
84.6618
88.4041
91.5777
94.0112
95.4826
95.7698
94.6303
91.7996
86.9505
79.6927
69.659
56.4505
39.5809
18.5553
-7.1146
-37.9468
-74.5254
-117.443
-167.404
-224.568
-288.188
-356.995
-421.553
30.042
23.6778
22.99
20.4604
18.8999
17.6872
16.8726
16.4607
16.3702
16.6418
17.3139
18.3448
19.7167
21.3998
23.4098
25.7387
28.359
31.2655
34.4338
37.8274
41.4076
45.1516
49.0372
52.8887
56.5512
60.051
63.3332
66.193
68.4819
70.0841
70.7932
70.3655
68.5745
65.1764
59.9088
52.4494
42.44
29.5239
13.3003
-6.68201
-30.8638
-59.6606
-93.4963
-132.833
-178.151
-230.057
-288.547
-352.154
-418.349
-476.631
22.9625
16.1187
15.6397
12.8006
11.1291
9.82605
8.88609
8.31491
8.13519
8.18067
8.56034
9.32931
10.4142
11.7894
13.4679
15.412
17.6169
20.059
22.7019
25.5034
28.4054
31.373
34.3675
37.3132
40.0663
42.51
44.563
46.1074
46.9543
46.9288
45.8738
43.5586
39.7301
34.1351
26.5043
16.5453
3.92564
-11.697
-30.6693
-53.377
-80.1868
-111.42
-147.394
-188.457
-234.951
-287.267
-345.417
-407.666
-469.771
-520.005
15.0244
7.60877
7.06507
3.90681
2.25137
0.764361
-0.361685
-1.0752
-1.45535
-1.51391
-1.37659
-0.982504
-0.254014
0.761935
2.01794
3.51272
5.21571
7.10432
9.14329
11.2849
13.4593
15.6233
17.7642
19.775
21.4907
22.8258
23.6611
23.8466
23.238
21.6661
18.9291
14.8033
9.04506
1.40113
-8.37795
-20.5835
-35.5012
-53.4035
-74.5958
-99.3829
-128.032
-160.783
-197.852
-239.464
-285.867
-337.313
-393.537
-452.915
-509.869
-550.604
5.66589
-1.98802
-2.72004
-6.22717
-7.85125
-9.40365
-10.6865
-11.6801
-12.317
-12.6849
-12.8433
-12.727
-12.4271
-11.9033
-11.1404
-10.2007
-9.09283
-7.84636
-6.50496
-5.10263
-3.71562
-2.40984
-1.22044
-0.211119
0.487084
0.730457
0.380975
-0.707746
-2.69927
-5.77041
-10.0983
-15.8929
-23.386
-32.8215
-44.4431
-58.4761
-75.166
-94.7552
-117.463
-143.51
-173.09
-206.339
-243.376
-284.341
-329.43
-378.9
-432.355
-487.796
-538.631
-569.102
-5.19832
-12.7389
-13.7482
-17.4368
-19.2097
-20.9146
-22.3543
-23.5875
-24.5845
-25.2736
-25.8077
-26.2022
-26.3594
-26.3524
-26.2139
-25.9233
-25.5007
-24.9916
-24.4246
-23.8274
-23.2717
-22.8334
-22.5465
-22.5257
-22.9024
-23.7553
-25.2456
-27.5676
-30.8609
-35.2596
-40.9634
-48.1904
-57.1435
-68.0224
-81.021
-96.3624
-114.236
-134.797
-158.223
-184.669
-214.239
-247.009
-283.023
-322.334
-365.079
-411.582
-461.67
-512.502
-556.785
-577.827
-17.8814
-24.795
-25.9527
-29.7522
-31.5914
-33.5037
-35.2526
-36.7367
-38.1177
-39.3905
-40.3665
-41.2142
-42.0042
-42.6702
-43.2163
-43.6517
-44.0119
-44.3105
-44.5764
-44.8446
-45.1662
-45.624
-46.3001
-47.2657
-48.6233
-50.5008
-53.0526
-56.4302
-60.7954
-66.3339
-73.2007
-81.5575
-91.579
-103.446
-117.338
-133.398
-151.768
-172.589
-195.962
-221.974
-250.687
-282.11
-316.222
-353.034
-392.648
-435.339
-481.267
-527.514
-566.45
-580.955
-31.9554
-38.1445
-39.3254
-43.1601
-45.1266
-47.3661
-49.403
-51.3035
-53.0546
-54.7099
-56.4698
-58.0223
-59.4447
-60.8407
-62.165
-63.4307
-64.6425
-65.7953
-66.9357
-68.0955
-69.3038
-70.6296
-72.14
-73.9828
-76.2791
-79.1066
-82.5873
-86.8832
-92.1511
-98.5217
-106.159
-115.235
-125.901
-138.286
-152.502
-168.69
-186.956
-207.358
-229.965
-254.824
-281.936
-311.288
-342.84
-376.525
-412.321
-450.802
-491.455
-532.312
-566.941
-579.792
-47.121
-52.6766
-53.8283
-57.4968
-59.5631
-62.1776
-64.6186
-67.0154
-69.4074
-71.6721
-73.9112
-76.2425
-78.558
-80.7844
-82.9636
-85.1141
-87.2127
-89.2663
-91.3093
-93.3612
-95.46
-97.6629
-100.044
-102.7
-105.737
-109.269
-113.446
-118.381
-124.201
-131.078
-139.159
-148.563
-159.4
-171.78
-185.822
-201.596
-219.152
-238.547
-259.803
-282.912
-307.847
-334.548
-362.933
-392.942
-424.583
-458.037
-492.08
-524.8
-550.494
-563.126
-63.2202
-68.0316
-69.1515
-72.759
-75.0446
-77.9819
-80.9059
-83.7718
-86.7218
-89.8833
-92.9807
-96.0921
-99.2393
-102.406
-105.542
-108.621
-111.654
-114.643
-117.589
-120.513
-123.447
-126.431
-129.513
-132.807
-136.447
-140.533
-145.154
-150.442
-156.545
-163.57
-171.639
-180.891
-191.441
-203.376
-216.74
-231.596
-247.988
-265.904
-285.331
-306.24
-328.556
-352.18
-376.971
-402.683
-429.907
-457.458
-483.573
-504.698
-515.824
-524.954
-79.8688
-84.1515
-85.1512
-88.6296
-91.0983
-94.4335
-97.7914
-101.423
-105.14
-108.992
-113.005
-117.119
-121.263
-125.429
-129.574
-133.667
-137.704
-141.658
-145.523
-149.314
-153.052
-156.774
-160.528
-164.387
-168.405
-172.695
-177.434
-182.73
-188.677
-195.423
-203.107
-211.832
-221.675
-232.699
-244.983
-258.547
-273.364
-289.424
-306.693
-325.092
-344.517
-364.796
-385.628
-407.103
-428.812
-449.611
-467.896
-480.593
-484.215
-487.236
-96.5706
-100.06
-101.207
-104.736
-107.441
-111.33
-115.308
-119.553
-124.161
-128.97
-134.027
-139.18
-144.411
-149.703
-154.939
-160.123
-165.211
-170.172
-174.984
-179.628
-184.11
-188.449
-192.668
-196.85
-201.089
-205.46
-210.049
-214.99
-220.453
-226.56
-233.416
-241.144
-249.854
-259.63
-270.479
-282.4
-295.394
-309.395
-324.313
-340.061
-356.494
-373.375
-390.568
-407.818
-424.326
-439.097
-450.547
-457.387
-463.525
-464.125
-112.979
-115.651
-116.856
-120.546
-123.649
-127.936
-132.711
-137.806
-143.316
-149.215
-155.325
-161.679
-168.198
-174.707
-181.188
-187.578
-193.819
-199.877
-205.687
-211.215
-216.448
-221.387
-226.056
-230.487
-234.714
-238.809
-242.939
-247.236
-251.798
-256.795
-262.42
-268.809
-276.056
-284.212
-293.343
-303.455
-314.463
-326.287
-338.845
-352.004
-365.611
-379.44
-393.344
-406.8
-419.102
-429.528
-436.904
-440.331
-443.92
-445.088
-128.367
-130.059
-131.531
-135.467
-139.062
-144.182
-149.54
-155.68
-162.264
-169.316
-176.773
-184.427
-192.254
-200.155
-208.037
-215.804
-223.354
-230.61
-237.504
-243.985
-249.988
-255.482
-260.457
-264.943
-269.004
-272.729
-276.183
-279.478
-282.835
-286.443
-290.455
-295.046
-300.394
-306.659
-313.869
-321.979
-330.951
-340.694
-351.064
-361.937
-373.121
-384.306
-395.272
-405.707
-414.89
-421.822
-425.761
-429.914
-430.802
-432.058
-141.919
-143.127
-144.842
-149.092
-153.199
-159.071
-165.412
-172.506
-180.364
-188.713
-197.462
-206.621
-216.021
-225.503
-234.987
-244.305
-253.333
-261.968
-270.125
-277.701
-284.599
-290.752
-296.128
-300.73
-304.564
-307.657
-310.141
-312.209
-314.003
-315.723
-317.667
-320.115
-323.293
-327.329
-332.343
-338.397
-345.394
-353.189
-361.691
-370.758
-379.851
-388.718
-397.429
-405.446
-411.971
-416.257
-419.089
-421.052
-422.207
-422.879
-153.223
-153.783
-156.051
-160.678
-165.491
-172.208
-179.624
-187.927
-196.95
-206.804
-217.202
-227.954
-239.02
-250.286
-261.567
-272.685
-283.469
-293.752
-303.404
-312.279
-320.253
-327.213
-333.052
-337.718
-341.253
-343.737
-345.228
-345.819
-345.764
-345.373
-344.928
-344.745
-345.162
-346.556
-349.146
-352.954
-357.96
-364.108
-371.307
-378.796
-386.046
-393.301
-400.128
-405.865
-409.902
-412.257
-414.396
-415.386
-416.483
-416.767
-161.33
-161.779
-164.716
-169.897
-175.377
-183.108
-191.419
-200.994
-211.588
-222.912
-234.932
-247.583
-260.612
-273.878
-287.2
-300.39
-313.226
-325.475
-336.931
-347.417
-356.772
-364.84
-371.463
-376.539
-380.015
-381.883
-382.203
-381.222
-379.134
-376.17
-372.741
-369.366
-366.608
-364.88
-364.495
-365.743
-368.774
-373.686
-379.663
-385.752
-392.116
-398.323
-403.278
-406.507
-408.205
-409.775
-410.664
-411.671
-412.609
-412.86
-165.201
-166.836
-170.355
-176.279
-182.533
-191.361
-200.739
-211.492
-223.512
-236.529
-250.435
-265.01
-280.157
-295.678
-311.348
-326.927
-342.164
-356.773
-370.468
-382.986
-394.126
-403.684
-411.427
-417.153
-420.725
-422.195
-421.656
-419.118
-414.782
-409.054
-402.384
-395.324
-388.497
-382.69
-378.642
-376.785
-377.327
-380.705
-385.659
-391.765
-398.35
-403.618
-406.578
-407.557
-408.029
-408.268
-408.81
-409.568
-410.283
-410.563
-165.136
-168.576
-172.712
-179.402
-186.502
-196.394
-206.823
-219.06
-232.461
-247.076
-262.8
-279.505
-296.972
-314.972
-333.275
-351.585
-369.609
-387.005
-403.426
-418.531
-431.989
-443.528
-452.924
-459.919
-464.268
-465.841
-464.576
-460.581
-454.108
-445.414
-434.928
-423.309
-411.567
-400.748
-391.853
-385.698
-382.84
-384.252
-389.212
-396.635
-403.834
-408.345
-410.078
-410.038
-409.254
-408.723
-408.432
-408.349
-408.452
-408.697
-161.126
-166.779
-171.738
-179.332
-187.442
-198.269
-209.573
-223.09
-237.955
-254.252
-271.848
-290.668
-310.498
-331.159
-352.338
-373.707
-394.935
-415.605
-435.308
-453.602
-470.045
-484.274
-495.984
-504.818
-510.415
-512.571
-511.249
-506.333
-497.864
-486.17
-471.745
-455.325
-437.782
-420.304
-404.607
-392.429
-384.942
-383.489
-388.282
-397.423
-406.506
-411.95
-413.613
-413.129
-411.786
-409.888
-408.094
-406.811
-406.119
-405.935
-154.359
-161.644
-167.519
-176.027
-185.09
-196.7
-209.058
-223.724
-239.841
-257.596
-277.001
-297.919
-320.168
-343.574
-367.823
-392.555
-417.358
-441.783
-465.332
-487.47
-507.66
-525.375
-540.158
-551.655
-559.466
-563.175
-562.513
-557.217
-547.353
-533.06
-514.721
-492.859
-468.433
-443.09
-418.712
-397.627
-382.193
-375.357
-379.315
-391.303
-404.587
-412.608
-415.22
-414.21
-412.225
-409.392
-406.358
-403.948
-402.472
-401.75
-144.677
-154.252
-160.108
-169.78
-179.742
-191.828
-205.158
-220.75
-237.922
-257.096
-278.157
-301.026
-325.622
-351.755
-379.15
-407.433
-436.132
-464.749
-492.71
-519.386
-544.109
-566.219
-585.103
-600.239
-611.068
-617.074
-617.932
-613.477
-603.154
-586.891
-564.919
-537.88
-506.717
-472.43
-436.634
-402.796
-375.527
-361.181
-362.65
-376.131
-393.95
-407.098
-412.261
-412.207
-410.261
-407.382
-404.01
-400.973
-398.917
-397.506
-133.27
-144.416
-150.537
-160.792
-171.385
-183.951
-197.969
-214.262
-232.374
-252.607
-275.066
-299.765
-326.565
-355.311
-385.816
-417.718
-450.535
-483.696
-516.548
-548.386
-578.442
-605.896
-629.931
-649.786
-664.829
-674.497
-678.237
-675.488
-665.815
-648.844
-624.478
-592.93
-554.579
-510.056
-462.065
-413.891
-371.48
-344.438
-339.147
-351.367
-373.459
-392.274
-404.91
-411.11
-412.232
-410.082
-406.625
-402.972
-400.276
-398.37
-120.662
-132.801
-139.557
-150.203
-160.717
-173.547
-187.937
-204.555
-223.265
-244.408
-268.016
-294.158
-322.863
-354.043
-387.515
-422.974
-459.982
-497.913
-536.059
-573.627
-609.723
-643.409
-673.69
-699.56
-720.123
-734.541
-742.196
-742.625
-735.228
-719.275
-693.939
-658.892
-614.689
-562.318
-502.237
-436.682
-374.657
-333.745
-319.673
-328.381
-354.046
-382.292
-403.908
-415.922
-419.622
-418.055
-413.985
-409.648
-406.523
-404.701
-108.666
-120.467
-127.467
-138.183
-148.566
-161.249
-175.566
-192.3
-211.16
-232.748
-257.037
-284.32
-314.616
-347.879
-384.079
-422.935
-464.057
-506.833
-550.502
-594.189
-636.942
-677.7
-715.293
-748.435
-775.864
-796.605
-809.967
-815.192
-811.417
-798.03
-773.993
-738.56
-691.512
-631.7
-557.659
-477.674
-402.953
-346.986
-317.73
-317.996
-342.792
-376.345
-404.039
-420.316
-426.005
-423.817
-420.085
-415.855
-413.354
-412.34
-98.1988
-107.717
-115.297
-125.55
-135.67
-148.036
-161.863
-178.183
-196.838
-218.382
-242.965
-270.828
-302.182
-337.037
-375.527
-417.536
-462.612
-510.18
-559.462
-609.545
-659.414
-707.919
-753.746
-795.301
-831.023
-859.609
-879.988
-891.408
-893.121
-884.416
-864.857
-831.323
-782.54
-715.055
-632.644
-544.2
-464.384
-397.69
-358.752
-348.354
-358.152
-380.832
-402.455
-417.158
-422.849
-422.357
-419.738
-417.395
-416.286
-416.316
-93.6495
-95.1444
-103.713
-112.808
-122.542
-134.445
-147.67
-163.239
-181.327
-202.266
-226.526
-254.406
-286.267
-322.165
-362.34
-406.982
-455.702
-507.939
-562.827
-619.434
-676.759
-733.582
-788.324
-839.207
-884.444
-922.437
-951.475
-971.25
-980.702
-978.271
-963.268
-933.493
-881.732
-810.148
-727.333
-640.076
-555.329
-488.257
-442.729
-416.951
-407.932
-411.053
-418.45
-422.91
-422.862
-419.914
-417.279
-416.258
-416.584
-417.565
-109.104
-86.5304
-93.2375
-100.831
-110.327
-121.573
-134.154
-148.77
-165.884
-186.073
-209.637
-237.041
-268.794
-305.171
-346.438
-392.945
-444.607
-501.021
-561.195
-624.296
-689.225
-754.732
-818.38
-878.546
-933.836
-982.786
-1022
-1051.55
-1070.7
-1074.88
-1062.08
-1037.27
-986.55
-915.479
-836.212
-753.04
-676.405
-609.489
-554.936
-513.773
-485.317
-466.39
-452.917
-441.691
-431.446
-422.322
-417.043
-416.255
-417.328
-418.8
64.0295
59.2147
56.8252
55.4339
54.8608
54.6851
54.8286
55.4552
56.641
58.2216
60.2118
62.6801
65.6638
69.1095
73.0453
77.4797
82.4162
87.8777
93.8517
100.324
107.295
114.712
122.507
130.6
139.142
147.986
156.904
165.882
174.887
183.724
192.223
200.229
207.604
214.136
219.54
223.601
225.973
226.27
224.172
219.231
211.005
198.999
182.685
161.424
134.635
101.718
62.0786
15.3777
-41.1738
-97.3293
60.5441
55.4856
53.5912
51.8214
50.8825
50.4071
50.2199
50.4811
51.3903
52.753
54.5662
56.778
59.4401
62.5913
66.2088
70.2978
74.8604
79.9014
85.4138
91.382
97.8023
104.627
111.845
119.309
126.869
134.682
142.64
150.498
158.209
165.702
172.789
179.221
184.828
189.436
192.76
194.547
194.458
192.113
187.208
179.23
167.749
152.236
132.173
106.941
75.9501
38.5029
-5.67425
-56.6651
-116.188
-173.822
55.776
50.2557
49.1541
47.1514
46.0007
45.3269
45.0486
45.2085
45.805
46.933
48.5407
50.5973
53.0855
56.0147
59.3992
63.2481
67.5289
72.2475
77.3938
82.9376
88.8662
95.1314
101.666
108.434
115.315
122.227
129.116
135.848
142.308
148.355
153.835
158.534
162.264
164.798
165.848
165.18
162.454
157.285
149.345
138.184
123.332
104.286
80.5574
51.5863
16.8079
-24.441
-72.2945
-126.233
-186.087
-241.611
50.055
44.0861
43.5741
41.325
40.1086
39.2518
38.8843
38.9884
39.4962
40.4632
41.9007
43.811
46.1679
48.9425
52.1542
55.7857
59.8167
64.2488
69.0522
74.1851
79.6176
85.3223
91.2819
97.35
103.335
109.281
115.155
120.752
125.881
130.458
134.324
137.249
139.012
139.401
138.149
134.96
129.532
121.521
110.553
96.233
78.1268
55.781
28.774
-3.35462
-41.0931
-85.0229
-135.179
-190.276
-248.879
-300.272
43.4397
37.0455
36.8337
34.2862
33.0211
32.1474
31.7258
31.7592
32.2625
33.0954
34.3643
36.1218
38.3072
40.8982
43.8953
47.2748
51.0261
55.1288
59.546
64.2318
69.1367
74.2104
79.3886
84.6685
89.9227
94.9534
99.7013
104.092
107.954
111.078
113.302
114.44
114.286
112.585
109.063
103.473
95.4903
84.7752
71.0117
53.8515
32.9224
7.8601
-21.6785
-56.0613
-95.6527
-140.873
-191.69
-246.61
-302.909
-348.611
36.0078
29.119
28.9145
26.0915
24.8854
23.8905
23.3498
23.3059
23.7078
24.5251
25.6548
27.149
29.0867
31.4312
34.129
37.1882
40.5735
44.2602
48.2122
52.3796
56.7049
61.1388
65.6617
70.1083
74.355
78.4008
82.1226
85.3207
87.8447
89.5538
90.2483
89.7036
87.7079
84.0449
78.4587
70.6621
60.387
47.3546
31.2681
11.8422
-11.2082
-38.1618
-69.2665
-104.785
-144.998
-190.204
-240.352
-293.846
-346.583
-385.269
27.2849
20.1701
19.7436
16.662
15.5265
14.5192
13.8902
13.639
13.8469
14.4657
15.401
16.7129
18.3453
20.314
22.6405
25.2727
28.1911
31.3681
34.7641
38.3327
42.0067
45.7158
49.4019
53.0603
56.5339
59.6018
62.1902
64.2121
65.4952
65.832
65.0301
62.9066
59.2672
53.8679
46.4548
36.8316
24.7354
9.90807
-7.8582
-28.787
-53.0945
-80.9668
-112.567
-148.088
-187.78
-231.947
-280.222
-330.991
-379.317
-409.917
17.1662
10.0819
9.31376
6.1186
4.86427
3.76134
3.03979
2.64052
2.58318
2.93651
3.61735
4.53359
5.80599
7.38577
9.22283
11.341
13.7056
16.2855
19.0519
21.9577
24.9435
27.9438
30.9252
33.6871
36.1463
38.275
39.9131
40.8344
40.8892
39.9609
37.8713
34.3964
29.3296
22.4922
13.6916
2.68912
-10.7002
-26.6505
-45.3508
-66.9664
-91.6393
-119.489
-150.604
-185.094
-223.179
-265.275
-311.086
-358.247
-401.157
-423.672
5.18204
-1.36828
-2.29644
-5.58571
-6.88525
-8.13672
-9.09379
-9.66278
-10.0048
-10.1208
-9.82313
-9.2414
-8.45524
-7.42634
-6.14426
-4.62143
-2.89516
-0.976807
1.09997
3.28846
5.53229
7.73996
9.84526
11.8547
13.5778
14.826
15.4582
15.3773
14.4403
12.4543
9.24226
4.65129
-1.46811
-9.31933
-19.0986
-30.9185
-44.9534
-61.3675
-80.272
-101.777
-125.979
-152.935
-182.684
-215.316
-250.993
-289.997
-332.506
-375.618
-413.064
-428.821
-8.3885
-14.2469
-15.1781
-18.4778
-19.8756
-21.391
-22.562
-23.4759
-24.0974
-24.4921
-24.8233
-24.8453
-24.5938
-24.1547
-23.5139
-22.6688
-21.6323
-20.4181
-19.0614
-17.5978
-16.0664
-14.5263
-13.0934
-11.9236
-11.1172
-10.7126
-10.8194
-11.6702
-13.443
-16.2498
-20.2181
-25.5184
-32.3281
-40.7687
-50.9556
-63.0565
-77.1759
-93.3952
-111.809
-132.497
-155.504
-180.851
-208.53
-238.543
-271.05
-306.483
-344.389
-382.785
-415.747
-428.114
-23.3777
-28.5093
-29.3804
-32.4781
-33.9322
-35.75
-37.2542
-38.5667
-39.7205
-40.6221
-41.37
-42.0036
-42.4942
-42.7733
-42.8381
-42.7217
-42.4125
-41.9361
-41.3162
-40.5825
-39.7863
-39.0066
-38.3009
-37.742
-37.4426
-37.6181
-38.4183
-39.9014
-42.1715
-45.4126
-49.8129
-55.4906
-62.5194
-71.0455
-81.2043
-93.0421
-106.648
-122.107
-139.457
-158.725
-179.93
-203.052
-228.052
-254.899
-283.545
-314.547
-346.809
-378.704
-405.356
-417.425
-39.427
-43.8214
-44.6325
-47.6017
-49.2284
-51.3013
-53.2205
-54.9168
-56.5586
-58.2366
-59.6858
-61.0061
-62.2111
-63.2463
-64.1125
-64.7647
-65.2237
-65.5
-65.6048
-65.5614
-65.408
-65.1957
-65.0058
-65.0063
-65.3187
-65.9559
-67.0091
-68.6965
-71.1989
-74.62
-79.0368
-84.5824
-91.4183
-99.6126
-109.213
-120.317
-132.973
-147.19
-162.978
-180.346
-199.27
-219.696
-241.523
-264.584
-289.17
-314.803
-340.167
-362.672
-378.062
-388.827
-56.1398
-60.1012
-60.7911
-63.6041
-65.3559
-67.7671
-70.0468
-72.4596
-74.7485
-77.0175
-79.2907
-81.4291
-83.4899
-85.407
-87.1092
-88.6044
-89.8807
-90.9273
-91.7562
-92.3918
-92.8613
-93.2316
-93.5548
-93.879
-94.2978
-95.0113
-96.2019
-97.9206
-100.233
-103.31
-107.353
-112.464
-118.666
-126.062
-134.747
-144.723
-155.999
-168.588
-182.471
-197.598
-213.904
-231.285
-249.549
-268.711
-288.53
-308.137
-326.17
-339.652
-345.044
-350.877
-73.2859
-76.4423
-77.2576
-80.1186
-82.094
-84.9998
-87.837
-90.7608
-93.8832
-96.9854
-100.166
-103.304
-106.297
-109.136
-111.766
-114.174
-116.31
-118.155
-119.71
-120.978
-121.967
-122.708
-123.265
-123.775
-124.361
-125.031
-125.872
-127.096
-128.923
-131.441
-134.707
-138.845
-144.025
-150.304
-157.68
-166.184
-175.828
-186.559
-198.305
-211.002
-224.541
-238.76
-253.48
-268.73
-283.721
-297.483
-308.886
-316.549
-321.502
-323.776
-90.5747
-92.9255
-93.7092
-96.6806
-99.0002
-102.267
-105.865
-109.573
-113.504
-117.65
-121.775
-125.921
-130.068
-134.008
-137.718
-141.15
-144.244
-146.959
-149.277
-151.192
-152.701
-153.824
-154.621
-155.135
-155.4
-155.586
-155.926
-156.504
-157.37
-158.728
-160.816
-163.761
-167.584
-172.355
-178.163
-185.006
-192.816
-201.532
-211.09
-221.378
-232.262
-243.542
-255.041
-266.502
-277.417
-286.932
-294.003
-297.829
-302.632
-304.157
-107.22
-108.516
-109.558
-112.746
-115.528
-119.567
-123.705
-128.435
-133.398
-138.593
-143.983
-149.361
-154.649
-159.83
-164.792
-169.396
-173.559
-177.247
-180.4
-182.981
-184.972
-186.358
-187.141
-187.458
-187.442
-187.122
-186.547
-185.92
-185.549
-185.588
-186.13
-187.325
-189.385
-192.439
-196.467
-201.444
-207.355
-214.117
-221.593
-229.672
-238.221
-246.942
-255.701
-264.3
-272.132
-278.324
-282.202
-285.716
-287.709
-289.421
-122.427
-123.156
-124.388
-127.859
-131.147
-135.925
-141.031
-146.649
-152.84
-159.348
-165.973
-172.747
-179.505
-186.089
-192.427
-198.4
-203.861
-208.711
-212.846
-216.218
-218.787
-220.527
-221.434
-221.543
-220.904
-219.62
-217.942
-216.044
-214.004
-212.082
-210.608
-209.843
-209.91
-210.882
-212.884
-215.953
-219.995
-224.881
-230.525
-236.848
-243.36
-249.872
-256.497
-262.814
-268.314
-272.319
-274.699
-276.968
-278.38
-279.522
-135.691
-135.682
-137.445
-141.278
-145.276
-150.903
-157.1
-163.978
-171.345
-179.266
-187.557
-195.926
-204.277
-212.54
-220.508
-228.041
-235.006
-241.212
-246.54
-250.885
-254.156
-256.296
-257.233
-257.011
-255.78
-253.648
-250.67
-247.007
-243.017
-239.003
-235.21
-231.898
-229.386
-227.997
-227.816
-228.819
-230.971
-234.227
-238.532
-243.276
-247.968
-252.915
-257.812
-262.145
-265.518
-267.834
-270.255
-271.352
-272.417
-272.991
-146.021
-145.739
-148.229
-152.603
-157.334
-163.981
-171.12
-179.306
-188.277
-197.751
-207.621
-217.865
-228.198
-238.403
-248.303
-257.708
-266.467
-274.359
-281.192
-286.804
-291.064
-293.861
-295.13
-294.882
-293.106
-289.829
-285.323
-279.864
-273.628
-266.927
-260.177
-253.885
-248.502
-244.275
-241.442
-240.188
-240.538
-242.384
-245.385
-248.749
-252.539
-256.539
-259.815
-262.053
-263.42
-264.994
-266.295
-267.417
-268.338
-268.669
-152.372
-153.105
-156.216
-161.294
-166.841
-174.647
-182.992
-192.458
-202.961
-214.179
-226.052
-238.259
-250.702
-263.157
-275.367
-287.062
-298.002
-307.949
-316.673
-323.938
-329.543
-333.326
-335.144
-334.888
-332.651
-328.58
-322.678
-315.156
-306.386
-296.777
-286.804
-276.976
-267.808
-259.978
-254.006
-250.124
-248.348
-248.628
-250.612
-253.648
-257.34
-260.45
-262.072
-262.633
-262.721
-263.13
-264.011
-265.029
-265.859
-266.168
-154.901
-157.238
-160.967
-166.901
-173.366
-182.281
-191.83
-202.886
-214.928
-227.937
-241.725
-256.195
-271.073
-286.047
-300.892
-315.276
-328.862
-341.358
-352.456
-361.876
-369.35
-374.639
-377.544
-377.921
-375.715
-370.872
-363.53
-354.071
-342.711
-329.81
-315.895
-301.648
-288.039
-275.842
-265.764
-258.374
-253.942
-252.761
-254.263
-257.784
-261.657
-263.972
-264.724
-264.291
-263.752
-263.37
-263.542
-264.038
-264.558
-264.894
-153.221
-157.702
-162.387
-169.287
-176.783
-186.904
-197.443
-210.001
-223.731
-238.614
-254.505
-271.258
-288.645
-306.453
-324.287
-341.77
-358.511
-374.124
-388.211
-400.414
-410.36
-417.746
-422.272
-423.662
-421.789
-416.756
-408.605
-397.306
-383.227
-366.848
-348.753
-329.772
-310.681
-292.586
-276.907
-264.788
-256.787
-253.479
-254.498
-258.898
-263.832
-266.913
-267.75
-267.31
-266.227
-264.963
-263.933
-263.304
-263.043
-263.156
-148.47
-154.649
-160.375
-168.269
-176.901
-188.058
-199.709
-213.67
-228.968
-245.621
-263.59
-282.757
-302.838
-323.591
-344.683
-365.681
-386.078
-405.389
-423.134
-438.794
-451.944
-462.194
-469.164
-472.523
-471.966
-467.322
-458.557
-445.918
-429.5
-409.714
-387.122
-362.358
-336.623
-311.563
-288.663
-269.592
-255.723
-248.452
-248.96
-255.217
-262.686
-267.912
-269.687
-269.279
-267.554
-265.386
-263.223
-261.598
-260.708
-260.435
-140.565
-149.172
-154.972
-164.098
-173.908
-185.626
-198.572
-213.773
-230.346
-248.727
-268.757
-290.248
-313.056
-336.917
-361.469
-386.272
-410.781
-434.391
-456.477
-476.442
-493.708
-507.734
-518.031
-524.087
-525.469
-521.987
-513.756
-500.349
-482.021
-459.104
-431.967
-401.554
-368.867
-335.247
-302.586
-273.452
-250.905
-238.726
-238.068
-245.545
-255.768
-264.275
-268.116
-268.276
-266.458
-263.894
-261.265
-259.081
-257.716
-256.866
-130.693
-140.928
-147.167
-157.022
-167.575
-179.979
-193.889
-209.995
-227.88
-247.75
-269.637
-293.41
-318.872
-345.791
-373.906
-402.737
-431.704
-460.109
-487.222
-512.309
-534.603
-553.355
-567.967
-577.923
-582.614
-581.562
-574.416
-561.198
-541.934
-516.596
-485.724
-449.564
-408.883
-365.443
-321.73
-280.56
-246.757
-226.478
-222.404
-230.193
-243.501
-254.797
-262.431
-266.064
-266.352
-264.533
-261.779
-259.112
-257.211
-255.819
-119.234
-130.712
-137.579
-147.994
-158.606
-171.493
-186.069
-202.784
-221.567
-242.796
-266.262
-292.023
-319.978
-349.913
-381.563
-414.497
-448.167
-481.791
-514.498
-545.412
-573.62
-598.229
-618.416
-633.431
-642.339
-644.706
-640.154
-628.444
-609.306
-582.722
-548.526
-507.372
-460.139
-407.726
-351.689
-295.223
-246.828
-217.703
-208.508
-214.728
-231.579
-249.221
-261.948
-268.675
-270.305
-268.822
-265.938
-262.656
-260.13
-258.38
-108.254
-119.457
-126.57
-137.208
-147.809
-160.727
-175.423
-192.573
-211.893
-233.902
-258.591
-286.078
-316.246
-348.961
-384.018
-421.049
-459.528
-498.636
-537.348
-574.714
-609.698
-641.266
-668.245
-689.519
-704.256
-711.568
-710.978
-701.946
-684.305
-657.785
-622.264
-578.015
-525.503
-463.731
-393.304
-324.301
-265.384
-225.594
-206.378
-206.207
-223.769
-245.004
-261.509
-271.83
-274.676
-274.017
-270.854
-267.429
-265.046
-263.869
-98.4461
-107.674
-115.189
-125.594
-136.005
-148.719
-163.141
-180.087
-199.478
-221.953
-247.359
-275.941
-307.815
-342.893
-381.108
-422.084
-465.357
-510.125
-555.208
-599.458
-641.92
-681.382
-716.332
-745.344
-767.318
-780.894
-785.493
-780.932
-766.321
-742.133
-708.082
-661.596
-603.894
-531.864
-453.16
-374.221
-308.566
-257.489
-230.024
-223.512
-231.337
-246.141
-260.47
-269.697
-272.862
-272.641
-270.793
-268.553
-267.241
-267
-94.611
-95.8517
-104.205
-113.498
-123.595
-136.003
-149.979
-166.399
-185.404
-207.653
-233.293
-262.388
-295.276
-332.077
-372.865
-417.492
-465.415
-515.934
-567.546
-619.003
-669.475
-717.707
-761.669
-799.648
-830.41
-852.025
-863.799
-865.534
-855.837
-834.137
-802.291
-752.945
-689.519
-611.604
-530.789
-450.454
-377.272
-322.079
-286.165
-267.609
-261.976
-264.345
-269.231
-271.496
-271.524
-269.997
-268.213
-267.166
-267.129
-267.746
-110.055
-87.8345
-94.1888
-102.048
-111.98
-123.928
-137.259
-152.925
-171.206
-192.96
-218.22
-247.194
-280.553
-318.491
-361.093
-408.667
-460.557
-515.954
-573.995
-632.99
-692.109
-749.359
-802.614
-850.211
-891.227
-922.533
-942.668
-951.901
-950.532
-931.114
-897.811
-852.224
-782.046
-706.208
-624.736
-545.739
-476.143
-418.122
-371.215
-337.587
-314.824
-299.989
-289.888
-282.334
-275.67
-270.07
-266.867
-266.192
-266.858
-267.914
-91.1759
-76.0279
-83.2659
-91.7643
-102.027
-113.539
-126.499
-141.709
-159.626
-180.402
-204.675
-233.781
-268.262
-307.728
-352.618
-403.671
-460.628
-522.264
-588.338
-657.671
-727.345
-795.188
-859.243
-917.764
-968.313
-1009.9
-1040.53
-1059.11
-1063.07
-1051.82
-1009.89
-947.21
-873.644
-792.43
-708.279
-630.588
-558.884
-496.109
-443.742
-401.723
-368.544
-342.189
-320.471
-301.854
-285.996
-274.233
-267.759
-266.404
-267.908
-269.174
-78.1415
-75.4526
-80.2113
-87.7317
-97.6186
-108.791
-122.142
-137.969
-156.93
-179.632
-206.503
-239.026
-277.239
-321.203
-372.106
-430.545
-496.21
-567.692
-643.251
-721.998
-802.074
-880.572
-954.624
-1022.32
-1080.8
-1125.41
-1156.99
-1169.96
-1161.66
-1124.95
-1071.46
-1003.8
-928.344
-846.296
-764.225
-685.305
-615.918
-553.953
-499.917
-452.994
-412.902
-378.507
-348.967
-323.459
-301.822
-284.737
-273.772
-269.512
-271.096
-272.619
-69.3333
-74.5687
-80.1997
-87.6907
-96.9343
-108.274
-122.732
-140.468
-162.517
-189.565
-221.159
-258.297
-302.351
-354.538
-415.525
-484.522
-560.138
-642.135
-729.953
-821.193
-912.743
-1000.47
-1082.44
-1154.93
-1214.61
-1256.37
-1277.8
-1272.86
-1244.1
-1196.67
-1134.72
-1062.72
-983.351
-903.225
-824.046
-747.565
-675.44
-609.828
-550.628
-497.956
-451.531
-410.837
-375.447
-345.048
-319.479
-298.891
-284.071
-276.265
-274.792
-277.851
-62.7738
-70.6344
-77.7925
-85.9764
-95.7579
-108.479
-124.705
-144.92
-170.015
-200.385
-236.808
-280.52
-333.162
-395.612
-466.778
-547.123
-637.206
-735.947
-840.545
-946.222
-1047.52
-1142.79
-1229.4
-1305.36
-1361.91
-1393.37
-1393.71
-1372.37
-1330.63
-1273.81
-1204.37
-1128.46
-1046.91
-963.849
-881.07
-801.162
-725.63
-655.4
-591.259
-533.34
-481.711
-436.289
-396.877
-363.326
-335.468
-313.154
-296.351
-285.491
-281.352
-286.913
-56.5196
-63.9113
-71.9785
-81.0858
-92.1192
-106.409
-124.111
-146.391
-174.441
-208.861
-251.345
-302.578
-363.499
-435.695
-519.841
-617.506
-728.241
-847.415
-968.758
-1086.62
-1198.21
-1302.04
-1396.11
-1467.8
-1509.61
-1519.5
-1504.29
-1468
-1415.1
-1348.13
-1272.48
-1189.62
-1103.38
-1015.16
-928.402
-844.207
-764.273
-689.65
-620.778
-558.509
-502.875
-453.948
-411.749
-376.146
-346.928
-323.792
-306.352
-294.748
-290.505
-294.07
-48.3878
-55.1462
-63.5527
-73.3614
-85.239
-100.187
-118.927
-143.594
-175.175
-214.654
-263.408
-321.324
-391.152
-476.422
-580.124
-701.361
-834.643
-973.088
-1110.11
-1242.26
-1366.94
-1479.14
-1568.62
-1620.31
-1639.84
-1632.07
-1601.1
-1551.29
-1487.29
-1411.61
-1327.66
-1238.17
-1145.66
-1052.98
-961.394
-873.053
-788.861
-710.094
-637.546
-571.779
-513.207
-461.811
-417.774
-381.018
-351.233
-328.06
-311.028
-300.044
-295.61
-296.357
-38.6733
-45.1672
-52.7738
-62.3006
-74.0693
-89.0318
-109.034
-136.106
-171.475
-216.096
-270.107
-336.235
-419.781
-524.886
-652.893
-798.713
-954.668
-1112.54
-1268.04
-1417.62
-1551.29
-1655.54
-1716.96
-1746.77
-1747.1
-1722.9
-1677.3
-1616.12
-1541.2
-1456.61
-1365.16
-1269.58
-1171.84
-1074.35
-978.917
-886.55
-798.546
-716.593
-641.113
-572.974
-512.24
-459.102
-413.908
-376.49