/*--------------------------------*- C++ -*----------------------------------*\
| =========                 |                                                 |
| \\      /  F ield         | OpenFOAM: The Open Source CFD Toolbox           |
|  \\    /   O peration     | Version:  v1912                                 |
|   \\  /    A nd           | Website:  www.openfoam.com                      |
|    \\/     M anipulation  |                                                 |
\*---------------------------------------------------------------------------*/
FoamFile
{
    version     2.0;
    format      ascii;
    class       surfaceScalarField;
    location    "0.2";
    object      phi;
}
// * * * * * * * * * * * * * * * * * * * * * * * * * * * * * * * * * * * * * //

dimensions      [0 3 -1 0 0 0 0];
oriented        oriented;


internalField   nonuniform List<scalar> 
13060
(
0.00528652
0.988944
-0.99423
0.00663605
0.946692
-0.948042
0.00734107
0.901574
-0.902279
0.00777417
0.858849
-0.859282
0.00780786
0.819219
-0.819252
0.00764982
0.781832
-0.781674
0.00746867
0.745727
-0.745546
0.00703812
0.711703
-0.711272
0.00650806
0.679002
-0.678471
0.00583685
0.647647
-0.646975
0.00540505
0.617359
-0.616928
0.00512726
0.588445
-0.588167
0.00484336
0.560802
-0.560518
0.00465439
0.534217
-0.534028
0.00455474
0.508808
-0.508708
0.00448732
0.484396
-0.484328
0.00445688
0.460956
-0.460925
0.00444551
0.43849
-0.438479
0.00443749
0.416943
-0.416935
0.00442751
0.396336
-0.396326
0.00442237
0.376658
-0.376653
0.00445481
0.357817
-0.357849
0.00474478
0.339644
-0.339934
0.00503001
0.322387
-0.322672
0.00508814
0.306167
-0.306225
0.00499166
0.290643
-0.290546
0.00490441
0.275611
-0.275524
0.00470312
0.261399
-0.261198
0.00438823
0.247999
-0.247684
0.00411642
0.235234
-0.234962
0.00388439
0.223117
-0.222885
0.00360559
0.211674
-0.211395
0.00326811
0.200872
-0.200534
0.00290459
0.190587
-0.190224
0.00252443
0.180883
-0.180503
0.00207787
0.171817
-0.17137
0.00158591
0.163313
-0.162821
0.00109031
0.155333
-0.154837
0.000583661
0.147829
-0.147322
7.10671e-05
0.140801
-0.140288
-0.000497956
0.134252
-0.133683
-0.00105901
0.128096
-0.127535
-0.00160718
0.122301
-0.121753
-0.0021177
0.116937
-0.116427
-0.00259063
0.111937
-0.111464
-0.0029704
0.107325
-0.106945
-0.00339792
0.10264
-0.102212
-0.0034182
0.09885
-0.0988297
-0.00247678
0.089972
-0.0909134
0.0602391
-0.0627159
0.00564548
0.983298
0.00594027
0.946398
0.00549229
0.902022
0.00454415
0.859797
0.00375193
0.820011
0.00304756
0.782536
0.00222606
0.746548
0.00176932
0.712159
0.00161
0.679161
0.00154815
0.647708
0.00136936
0.617538
0.00110601
0.588708
0.000943073
0.560965
0.000751362
0.534408
0.000534644
0.509024
0.00033625
0.484594
0.000175753
0.461116
4.38046e-05
0.438622
-7.19574e-05
0.417059
-0.000171712
0.396436
-0.000273389
0.37676
-0.000405724
0.357949
-0.000824861
0.340063
-0.00138714
0.322949
-0.00162164
0.306402
-0.00164882
0.29067
-0.00179074
0.275753
-0.00191722
0.261526
-0.0019151
0.247997
-0.00199525
0.235314
-0.00221297
0.223335
-0.0024368
0.211898
-0.0026385
0.201074
-0.00287586
0.190825
-0.00316589
0.181173
-0.00345133
0.172102
-0.0037302
0.163592
-0.00402849
0.155631
-0.00433469
0.148135
-0.0046383
0.141104
-0.00490515
0.134519
-0.00513649
0.128328
-0.00531894
0.122483
-0.00543574
0.117054
-0.00547261
0.111974
-0.00540612
0.107259
-0.00534269
0.102577
-0.00466767
0.098175
-0.0031264
0.0884307
0.0571127
0.00465898
0.978639
0.00484239
0.946214
0.00423037
0.902634
0.00303551
0.860992
0.00189407
0.821152
0.000938238
0.783492
-9.19614e-05
0.747579
-0.001268
0.713335
-0.00259153
0.680484
-0.00375997
0.648877
-0.00459661
0.618375
-0.00525568
0.589367
-0.00593007
0.561639
-0.00646807
0.534946
-0.00687167
0.509428
-0.00720584
0.484928
-0.00749254
0.461403
-0.00773845
0.438868
-0.0079564
0.417277
-0.00815427
0.396634
-0.0083172
0.376923
-0.00842087
0.358053
-0.00817264
0.339814
-0.00782515
0.322601
-0.00785805
0.306434
-0.00799454
0.290806
-0.00800011
0.275758
-0.00810116
0.261627
-0.00834742
0.248243
-0.0084914
0.235458
-0.00853188
0.223375
-0.00860858
0.211974
-0.00872116
0.201186
-0.00882112
0.190925
-0.00889311
0.181245
-0.00898636
0.172196
-0.00909367
0.163699
-0.00917366
0.155711
-0.0092291
0.14819
-0.0092563
0.141131
-0.00923054
0.134493
-0.00914467
0.128242
-0.00899762
0.122336
-0.00876197
0.116818
-0.00842648
0.111639
-0.00797913
0.106811
-0.00742003
0.102017
-0.00615347
0.0969084
-0.00388774
0.086165
0.0532249
0.00395765
0.974682
0.0028188
0.947353
0.000991638
0.904461
-0.000768251
0.862752
-0.00253646
0.82292
-0.00418512
0.785141
-0.00553023
0.748924
-0.00653702
0.714342
-0.00731154
0.681259
-0.00792194
0.649487
-0.00863374
0.619087
-0.0092739
0.590007
-0.00978843
0.562154
-0.0103333
0.535491
-0.0108486
0.509943
-0.0113142
0.485394
-0.0117238
0.461813
-0.0120818
0.439226
-0.0123986
0.417594
-0.0126683
0.396904
-0.01291
0.377165
-0.0131734
0.358316
-0.0136854
0.340326
-0.0142668
0.323183
-0.0145165
0.306684
-0.014595
0.290885
-0.014731
0.275894
-0.0147629
0.261659
-0.0146411
0.248121
-0.0145989
0.235415
-0.0146522
0.223429
-0.0146716
0.211994
-0.0146375
0.201152
-0.0146017
0.190889
-0.0145816
0.181225
-0.0145087
0.172123
-0.0143851
0.163576
-0.0142364
0.155562
-0.0140464
0.148
-0.0137938
0.140879
-0.0134731
0.134173
-0.0130598
0.127828
-0.0125507
0.121827
-0.0119426
0.11621
-0.0112078
0.110904
-0.0102699
0.105873
-0.00926615
0.101014
-0.00759194
0.0952342
-0.00463159
0.0832046
0.0485934
0.00244219
0.972239
0.00131013
0.948485
-0.000791409
0.906563
-0.00255911
0.86452
-0.00453415
0.824895
-0.00628412
0.786891
-0.00806925
0.750709
-0.0100267
0.7163
-0.011821
0.683053
-0.01349
0.651156
-0.0148088
0.620405
-0.0159582
0.591157
-0.0170459
0.563241
-0.0179091
0.536354
-0.0186206
0.510655
-0.0192391
0.486012
-0.0197752
0.462349
-0.0202438
0.439694
-0.0206515
0.418002
-0.0209911
0.397243
-0.02126
0.377434
-0.0214098
0.358466
-0.0212238
0.34014
-0.020875
0.322834
-0.0208342
0.306643
-0.0209423
0.290993
-0.0209155
0.275868
-0.020924
0.261668
-0.0210592
0.248256
-0.0210736
0.23543
-0.0209295
0.223284
-0.0207734
0.211838
-0.0206274
0.201006
-0.0204333
0.190695
-0.0201675
0.180959
-0.0198854
0.171841
-0.0195715
0.163262
-0.0191881
0.155179
-0.0187321
0.147544
-0.0182007
0.140347
-0.0175791
0.133551
-0.0168663
0.127116
-0.016055
0.121016
-0.0151175
0.115273
-0.0140649
0.109851
-0.0128666
0.104675
-0.0114506
0.0995978
-0.0092532
0.0930367
-0.00546576
0.0794172
0.0431276
0.0013405
0.970899
-0.00126479
0.95109
-0.00431234
0.90961
-0.00702177
0.867229
-0.00959363
0.827467
-0.0119475
0.789245
-0.0139279
0.752689
-0.0153349
0.717707
-0.0164844
0.684203
-0.0175989
0.652271
-0.0188426
0.621649
-0.0199078
0.592222
-0.0207841
0.564118
-0.021654
0.537224
-0.0224585
0.511459
-0.0231893
0.486743
-0.023834
0.462994
-0.0244012
0.440262
-0.0249013
0.418502
-0.0253329
0.397675
-0.0257081
0.377809
-0.0260774
0.358836
-0.0267094
0.340772
-0.0273976
0.323522
-0.0276468
0.306893
-0.0276414
0.290988
-0.0277118
0.275938
-0.0276608
0.261617
-0.0273707
0.247966
-0.0271258
0.235185
-0.0269681
0.223127
-0.0267388
0.211608
-0.0264074
0.200675
-0.0260362
0.190324
-0.0256493
0.180573
-0.0251767
0.171368
-0.0246147
0.1627
-0.0239826
0.154547
-0.0232716
0.146833
-0.0224683
0.139544
-0.0215671
0.13265
-0.0205497
0.126098
-0.0194144
0.119881
-0.0181701
0.114028
-0.0168046
0.108486
-0.0153932
0.103263
-0.0135215
0.0977261
-0.010838
0.0903532
-0.00624178
0.0748209
0.0368858
0.000512367
0.970387
-0.00283003
0.954433
-0.00612007
0.9129
-0.00881559
0.869925
-0.0115076
0.830159
-0.0140334
0.791771
-0.0165402
0.755196
-0.0191185
0.720285
-0.021584
0.686668
-0.0236825
0.654369
-0.0253413
0.623308
-0.0269612
0.593842
-0.028491
0.565647
-0.0297367
0.53847
-0.0307862
0.512509
-0.0317013
0.487658
-0.0324973
0.46379
-0.0331872
0.440951
-0.0337716
0.419086
-0.0342462
0.398149
-0.0346006
0.378163
-0.0347914
0.359026
-0.0345778
0.340559
-0.0341559
0.3231
-0.0340399
0.306777
-0.0340717
0.291019
-0.0339086
0.275775
-0.0337449
0.261453
-0.0337098
0.247931
-0.0335299
0.235005
-0.03314
0.222737
-0.0326853
0.211154
-0.0322064
0.200196
-0.0316503
0.189768
-0.0309858
0.179908
-0.0302701
0.170652
-0.0294956
0.161925
-0.0286273
0.153679
-0.0276608
0.145867
-0.026596
0.138479
-0.0254257
0.131479
-0.0241621
0.124835
-0.0228112
0.11853
-0.0213421
0.112559
-0.0197547
0.106898
-0.0181065
0.101615
-0.0158652
0.0954848
-0.0125728
0.0870608
-0.00703816
0.0692863
0.0298477
-0.000490323
0.970877
-0.00524632
0.959189
-0.00943567
0.917089
-0.0132578
0.873747
-0.016769
0.83367
-0.0196814
0.794683
-0.0221743
0.757689
-0.0241937
0.722304
-0.0259092
0.688384
-0.0275591
0.656019
-0.0292922
0.625041
-0.0306702
0.59522
-0.0318584
0.566836
-0.0330704
0.539682
-0.0341921
0.513631
-0.0352106
0.488676
-0.0361074
0.464686
-0.03689
0.441734
-0.0375664
0.419763
-0.0381458
0.398729
-0.038644
0.378662
-0.0391122
0.359495
-0.0398251
0.341272
-0.0405779
0.323853
-0.0408291
0.307028
-0.0407238
0.290914
-0.0406472
0.275698
-0.0404396
0.261245
-0.0399414
0.247433
-0.0394168
0.23448
-0.0389559
0.222276
-0.0384127
0.210611
-0.0377268
0.19951
-0.0369586
0.188999
-0.0361554
0.179105
-0.035249
0.169746
-0.0342323
0.160909
-0.0331231
0.152569
-0.0319208
0.144664
-0.0306224
0.137181
-0.0292277
0.130085
-0.0277242
0.123331
-0.0261133
0.116919
-0.0244359
0.110882
-0.0227685
0.105231
-0.020729
0.0995759
-0.018115
0.0928708
-0.0141759
0.0831217
-0.00773497
0.0628454
0.0221127
-0.00105965
0.971937
-0.00631845
0.964448
-0.0108772
0.921648
-0.0146939
0.877564
-0.01815
0.837127
-0.0214757
0.798009
-0.024812
0.761025
-0.0279337
0.725426
-0.0309409
0.691391
-0.033468
0.658546
-0.0356061
0.627179
-0.03778
0.597394
-0.0397587
0.568814
-0.0413915
0.541315
-0.0428059
0.515045
-0.0440467
0.489917
-0.0451313
0.465771
-0.046062
0.442665
-0.046836
0.420537
-0.0474573
0.39935
-0.0479087
0.379113
-0.0481291
0.359715
-0.0478923
0.341035
-0.0473739
0.323335
-0.0471173
0.306771
-0.0470166
0.290813
-0.0466879
0.27537
-0.0462763
0.260834
-0.045986
0.247142
-0.0455671
0.234061
-0.0448848
0.221594
-0.0440734
0.209799
-0.0432158
0.198652
-0.0422722
0.188056
-0.041193
0.178026
-0.0400401
0.168593
-0.038819
0.159688
-0.0375035
0.151254
-0.036092
0.143253
-0.0345828
0.135672
-0.0329735
0.128475
-0.0312925
0.12165
-0.0295717
0.115198
-0.0277733
0.109084
-0.0259408
0.103398
-0.0234986
0.0971337
-0.0204029
0.0897751
-0.0155129
0.0782318
-0.0080272
0.0553596
0.0140855
-0.0022979
0.974234
-0.00839268
0.970542
-0.0137717
0.927027
-0.0188507
0.882643
-0.0230754
0.841351
-0.0266606
0.801594
-0.0296113
0.763976
-0.0321803
0.727995
-0.0344822
0.693693
-0.0367823
0.660846
-0.038995
0.629392
-0.0406825
0.599081
-0.0422631
0.570395
-0.0438915
0.542943
-0.0453779
0.516531
-0.0467235
0.491263
-0.047917
0.466965
-0.0489578
0.443705
-0.0498493
0.421428
-0.0505995
0.4001
-0.0512292
0.379743
-0.0517971
0.360283
-0.0525565
0.341794
-0.0533506
0.324129
-0.0536052
0.307026
-0.0533807
0.290589
-0.053125
0.275114
-0.0527507
0.260459
-0.0520199
0.246412
-0.0511626
0.233204
-0.0503493
0.22078
-0.0494668
0.208917
-0.0484194
0.197605
-0.0472555
0.186892
-0.046053
0.176823
-0.0447486
0.167289
-0.0433308
0.15827
-0.0418188
0.149742
-0.0402174
0.141652
-0.0385348
0.133989
-0.0367791
0.12672
-0.0349357
0.119807
-0.032996
0.113258
-0.0311671
0.107255
-0.0289892
0.10122
-0.0263016
0.0944461
-0.0224524
0.0859259
-0.0160435
0.0718229
-0.00650356
0.0458197
0.00758193
-0.00281173
0.977046
-0.00916183
0.976892
-0.0145042
0.93237
-0.0192419
0.88738
-0.0236576
0.845767
-0.0278753
0.805811
-0.0317352
0.767836
-0.0355073
0.731767
-0.0388522
0.697038
-0.0417575
0.663752
-0.0445095
0.632144
-0.0473517
0.601923
-0.0498324
0.572876
-0.0519191
0.54503
-0.0537618
0.518374
-0.0553939
0.492895
-0.0568257
0.468396
-0.0580574
0.444937
-0.0590859
0.422457
-0.0599103
0.400925
-0.0605107
0.380343
-0.06082
0.360592
-0.0606243
0.341599
-0.0600316
0.323536
-0.059587
0.306581
-0.0593442
0.290346
-0.0588656
0.274635
-0.0581888
0.259783
-0.0576081
0.245831
-0.0569441
0.23254
-0.0559853
0.219822
-0.0548267
0.207758
-0.0536029
0.196381
-0.0523116
0.185601
-0.0508743
0.175386
-0.0493519
0.165766
-0.0477648
0.156683
-0.0460947
0.148072
-0.0443495
0.139906
-0.0425266
0.132166
-0.0406204
0.124814
-0.0386638
0.11785
-0.0367648
0.111359
-0.0347599
0.10525
-0.0321662
0.0986266
-0.0289451
0.091225
-0.0239738
0.0809546
-0.0156398
0.0634889
-0.00420989
0.0343897
0.00337204
-0.00380108
0.980847
-0.0109782
0.98407
-0.0169652
0.938357
-0.022634
0.893049
-0.027409
0.850542
-0.0314769
0.809879
-0.0351562
0.771515
-0.0383009
0.734912
-0.041238
0.699975
-0.0442703
0.666784
-0.0468346
0.634708
-0.0489682
0.604057
-0.0510632
0.574971
-0.0531668
0.547134
-0.0551058
0.520313
-0.0568744
0.494664
-0.0584537
0.469976
-0.0598454
0.446329
-0.0610434
0.423655
-0.0620497
0.401931
-0.0628796
0.381173
-0.063589
0.361301
-0.0643976
0.342407
-0.065256
0.324394
-0.0655913
0.306917
-0.0652875
0.290042
-0.0648511
0.274199
-0.0643425
0.259274
-0.0634421
0.244931
-0.0622817
0.23138
-0.0611196
0.21866
-0.059927
0.206565
-0.0585776
0.195031
-0.0570801
0.184103
-0.0555499
0.173856
-0.0539378
0.164154
-0.0522208
0.154966
-0.0504227
0.146274
-0.0485437
0.138027
-0.0465984
0.130221
-0.0446073
0.122822
-0.042607
0.11585
-0.0406561
0.109409
-0.0382147
0.102808
-0.0352994
0.0957113
-0.0311453
0.0870709
-0.024704
0.0745133
-0.0150518
0.0538367
-0.00259295
0.0219309
0.00077909
-0.00405342
0.984901
-0.0108038
0.99082
-0.0164089
0.943962
-0.0217453
0.898386
-0.0267364
0.855533
-0.0315983
0.814741
-0.0360437
0.77596
-0.0402852
0.739153
-0.0442691
0.703959
-0.0476866
0.670201
-0.0511655
0.638187
-0.0545903
0.607482
-0.0576236
0.578004
-0.0603028
0.549813
-0.0627105
0.522721
-0.064862
0.496815
-0.0667654
0.471879
-0.0684254
0.447989
-0.0698345
0.425064
-0.0709864
0.403083
-0.0718549
0.382041
-0.0723789
0.361825
-0.0723672
0.342396
-0.071817
0.323844
-0.0712339
0.306334
-0.0708789
0.289687
-0.0703362
0.273656
-0.0694488
0.258386
-0.0685845
0.244066
-0.0677142
0.230509
-0.0665607
0.217506
-0.0651301
0.205135
-0.063599
0.1935
-0.062039
0.182543
-0.0603404
0.172157
-0.0585508
0.162365
-0.0567092
0.153124
-0.0547972
0.144362
-0.0528345
0.136065
-0.0508171
0.128203
-0.0487643
0.12077
-0.0468464
0.113932
-0.0446443
0.107206
-0.0419862
0.10015
-0.0385608
0.092286
-0.033467
0.0819771
-0.0250296
0.0660759
-0.0124465
0.0412536
-0.00151958
0.011004
-0.000740489
-0.00431042
0.989211
-0.011766
0.998275
-0.0182304
0.950426
-0.0240364
0.904192
-0.0290087
0.860505
-0.0334956
0.819228
-0.0377114
0.780176
-0.0414906
0.742932
-0.0450801
0.707549
-0.0486018
0.673723
-0.0517108
0.641296
-0.0544517
0.610223
-0.0571942
0.580746
-0.0598993
0.552518
-0.0624471
0.525269
-0.0648101
0.499178
-0.0669551
0.474024
-0.0688716
0.449905
-0.0705472
0.426739
-0.0719742
0.40451
-0.0731575
0.383225
-0.0741384
0.362806
-0.0750995
0.343357
-0.0761075
0.324852
-0.0766766
0.306903
-0.0764607
0.289471
-0.0759071
0.273103
-0.0753298
0.257809
-0.0743802
0.243117
-0.073023
0.229152
-0.0715578
0.216041
-0.0701003
0.203677
-0.0685369
0.191937
-0.0667967
0.180803
-0.0650243
0.170385
-0.0632005
0.160541
-0.0612905
0.151214
-0.0593262
0.142397
-0.0573001
0.134039
-0.0552257
0.126129
-0.0533134
0.118857
-0.0512434
0.111862
-0.0487441
0.104707
-0.0457021
0.0971084
-0.041478
0.0880618
-0.0346492
0.0751483
-0.0237122
0.0551389
-0.00826183
0.0258032
-0.00104986
0.00379203
-0.00179035
-0.00368827
0.992899
-0.0100106
1.0046
-0.0158699
0.956286
-0.021575
0.909897
-0.0267769
0.865707
-0.031868
0.824319
-0.0367393
0.785048
-0.0414264
0.747619
-0.0458213
0.711943
-0.0499934
0.677895
-0.0541636
0.645466
-0.0582787
0.614338
-0.0620846
0.584552
-0.0655409
0.555974
-0.0687089
0.528437
-0.0715973
0.502067
-0.074202
0.476629
-0.0765227
0.452226
-0.0785409
0.428758
-0.080248
0.406217
-0.0816118
0.384589
-0.0825728
0.363767
-0.0829845
0.343768
-0.0826969
0.324564
-0.0821376
0.306343
-0.0817745
0.289108
-0.0813171
0.272645
-0.0803841
0.256876
-0.0792965
0.242029
-0.0782376
0.228093
-0.0769775
0.214781
-0.0753873
0.202087
-0.0736169
0.190166
-0.0718496
0.179036
-0.0699772
0.168512
-0.0680107
0.158574
-0.0660155
0.149219
-0.0639716
0.140354
-0.0619129
0.13198
-0.0599761
0.124192
-0.0579862
0.116867
-0.0556366
0.109512
-0.0529557
0.102026
-0.0493732
0.0935259
-0.0435319
0.0822205
-0.0335005
0.0651169
-0.0181062
0.0397446
-0.00424005
0.011937
-0.000301548
-0.000146481
-0.0020919
-0.00290962
0.995809
-0.0101665
1.01185
-0.0161008
0.96222
-0.0219508
0.915747
-0.027041
0.870797
-0.0318313
0.82911
-0.0361531
0.789369
-0.0404082
0.751874
-0.0446605
0.716196
-0.0488262
0.682061
-0.0526259
0.649266
-0.05613
0.617842
-0.0596925
0.588115
-0.0631994
0.559481
-0.0665687
0.531806
-0.0697627
0.505261
-0.0727381
0.479604
-0.0754439
0.454932
-0.0778625
0.431176
-0.0799797
0.408334
-0.0817843
0.386393
-0.0833024
0.365286
-0.0846504
0.345116
-0.0859788
0.325893
-0.0869816
0.307346
-0.0871281
0.289255
-0.0866648
0.272182
-0.0861019
0.256313
-0.0852463
0.241174
-0.0838589
0.226706
-0.0821676
0.213089
-0.0804558
0.200375
-0.0787244
0.188435
-0.0768067
0.177118
-0.0748335
0.166539
-0.0728601
0.156601
-0.0708327
0.147191
-0.068793
0.138314
-0.0668074
0.129994
-0.0648587
0.122243
-0.0626433
0.114652
-0.0601379
0.107007
-0.0568839
0.0987723
-0.0517249
0.0883669
-0.0427768
0.0732724
-0.0285477
0.0508878
-0.010862
0.0220589
-0.00219211
0.00326716
-2.98264e-05
-0.00230876
-0.00212172
-0.0018104
0.997619
-0.00732379
1.01737
-0.0124792
0.967375
-0.0176216
0.920889
-0.0225992
0.875775
-0.0277994
0.83431
-0.0331229
0.794693
-0.0382809
0.757033
-0.0431611
0.721076
-0.0478963
0.686796
-0.0528175
0.654187
-0.0578061
0.62283
-0.0624552
0.592764
-0.0668241
0.56385
-0.0709873
0.535969
-0.0748973
0.509171
-0.0785306
0.483237
-0.0818221
0.458223
-0.0847689
0.434123
-0.0873523
0.410917
-0.0895359
0.388577
-0.0912789
0.367028
-0.0924596
0.346297
-0.0928019
0.326235
-0.092557
0.307101
-0.0923669
0.289064
-0.0921763
0.271991
-0.0914449
0.255582
-0.0902801
0.240009
-0.0890487
0.225475
-0.0877159
0.211757
-0.0860655
0.198725
-0.0840917
0.186461
-0.0821004
0.175127
-0.0800696
0.164508
-0.0779527
0.154484
-0.075854
0.145093
-0.0737836
0.136243
-0.0718172
0.128028
-0.0696963
0.120123
-0.0672828
0.112238
-0.0642464
0.10397
-0.0595951
0.0941209
-0.05154
0.0803118
-0.0381271
0.0598596
-0.0189074
0.031668
-0.00497415
0.00812564
-0.000684477
-0.00102251
0.000189452
-0.00318269
-0.00193227
-0.000296844
0.997916
-0.00602812
1.0231
-0.0112852
0.972632
-0.0164126
0.926017
-0.0212198
0.880582
-0.0259113
0.839001
-0.0303869
0.799168
-0.0349901
0.761636
-0.0396984
0.725784
-0.0445495
0.691647
-0.0490833
0.658721
-0.0534657
0.627213
-0.0579756
0.597274
-0.0625234
0.568398
-0.0669678
0.540414
-0.0712448
0.513448
-0.0753158
0.487308
-0.0791382
0.462046
-0.0826671
0.437652
-0.0858202
0.41407
-0.0885884
0.391345
-0.0909685
0.369409
-0.0930356
0.348364
-0.09497
0.32817
-0.0966944
0.308826
-0.0975939
0.289964
-0.0975335
0.271931
-0.0971214
0.25517
-0.0964735
0.239361
-0.095259
0.22426
-0.0934745
0.209972
-0.091473
0.196723
-0.0895194
0.184508
-0.0874169
0.173024
-0.0851898
0.162281
-0.0830122
0.152306
-0.0808847
0.142965
-0.078857
0.134216
-0.076766
0.125937
-0.0743968
0.117753
-0.0714876
0.109329
-0.0672625
0.0997454
-0.0599076
0.0867661
-0.0470032
0.0674073
-0.0272063
0.0400627
-0.00931943
0.0137812
-0.00207854
0.000884746
-2.2495e-06
-0.0030988
0.000232393
-0.00341733
-0.00169988
0.00131024
0.996606
-0.00206403
1.02647
-0.00610487
0.976673
-0.0105615
0.930473
-0.015029
0.88505
-0.0202651
0.844237
-0.0254411
0.804344
-0.0306891
0.766884
-0.0359895
0.731085
-0.0412204
0.696878
-0.0469262
0.664427
-0.0528085
0.633095
-0.0584055
0.602871
-0.063828
0.57382
-0.069137
0.545723
-0.0742584
0.518569
-0.0791901
0.49224
-0.083853
0.466709
-0.0881358
0.441935
-0.0920054
0.41794
-0.0954117
0.394751
-0.0983306
0.372328
-0.100657
0.35069
-0.10214
0.329653
-0.102649
0.309334
-0.102927
0.290242
-0.103201
0.272205
-0.102976
0.254945
-0.102007
0.238392
-0.100663
0.222917
-0.0992098
0.208519
-0.0975381
0.195052
-0.0953782
0.182348
-0.0930417
0.170688
-0.0907446
0.159984
-0.0884077
0.14997
-0.0860985
0.140656
-0.0838776
0.131995
-0.0814522
0.123512
-0.0785964
0.114897
-0.0746418
0.105375
-0.0678897
0.0929933
-0.0553904
0.0742668
-0.0352596
0.0472765
-0.0146338
0.019437
-0.00414569
0.00329304
-0.000712135
-0.00254881
0.000203465
-0.0040144
0.000199197
-0.00341307
-0.00150068
0.00241819
0.994188
-0.000387081
1.02928
-0.00397683
0.980263
-0.00821135
0.934708
-0.0122442
0.889083
-0.0164303
0.848423
-0.0207737
0.808688
-0.0254339
0.771544
-0.0305266
0.736177
-0.0359434
0.702295
-0.0410316
0.669515
-0.0462332
0.638297
-0.0517535
0.608391
-0.0574041
0.579471
-0.0630793
0.551398
-0.0686823
0.524172
-0.0741357
0.497693
-0.0793811
0.471954
-0.0843439
0.446897
-0.0889485
0.422545
-0.0931479
0.398951
-0.0968765
0.376056
-0.100072
0.353886
-0.102958
0.332539
-0.10572
0.312096
-0.107777
0.292299
-0.108659
0.273086
-0.108678
0.254963
-0.108338
0.238052
-0.1075
0.222078
-0.105896
0.206915
-0.103628
0.192784
-0.101248
0.179967
-0.0987994
0.168239
-0.0961345
0.157319
-0.0935795
0.147415
-0.0910507
0.138127
-0.088417
0.129361
-0.0855349
0.120629
-0.0817238
0.111086
-0.0753624
0.0990131
-0.0632827
0.0809136
-0.0428762
0.0538604
-0.0202548
0.024655
-0.00688872
0.00607086
-0.00214897
-0.00144671
-0.000684048
-0.00401374
-0.00018357
-0.00451488
-2.05746e-06
-0.00359458
-0.00150274
0.00529538
0.988892
0.00367751
1.0309
0.00154243
0.982398
-0.00144372
0.937694
-0.00521497
0.892854
-0.00980195
0.85301
-0.0146288
0.813515
-0.019898
0.776813
-0.0250883
0.741368
-0.0305963
0.707803
-0.0368599
0.675779
-0.0434267
0.644864
-0.049854
0.614818
-0.0563366
0.585953
-0.0628656
0.557927
-0.0693484
0.530655
-0.0757334
0.504078
-0.0819403
0.478161
-0.0878978
0.452855
-0.0935037
0.428151
-0.0986377
0.404085
-0.103178
0.380596
-0.107114
0.357822
-0.110266
0.335691
-0.112188
0.314017
-0.113268
0.293379
-0.114321
0.274139
-0.114944
0.255587
-0.114643
0.237751
-0.113476
0.220911
-0.111869
0.205308
-0.110112
0.191027
-0.107784
0.17764
-0.104852
0.165307
-0.101961
0.154428
-0.0989304
0.144384
-0.095786
0.134983
-0.0925447
0.12612
-0.0885063
0.116591
-0.0822025
0.104783
-0.0705592
0.0873698
-0.0498968
0.0602512
-0.025657
0.0296206
-0.00993927
0.00893728
-0.00378111
-8.72989e-05
-0.0017061
-0.00352171
-0.000930131
-0.0047897
-0.00056031
-0.0048847
-0.000243485
-0.0039114
-0.00174622
0.00582835
0.983064
0.00519367
1.03153
0.00361519
0.983977
0.00111815
0.940191
-0.00195719
0.895929
-0.00514028
0.856193
-0.00895568
0.81733
-0.013395
0.781253
-0.0185101
0.746483
-0.0238977
0.71319
-0.0292251
0.681106
-0.0349644
0.650603
-0.0412481
0.621102
-0.0478857
0.592591
-0.0547326
0.564774
-0.0617036
0.537626
-0.068686
0.511061
-0.0755716
0.485046
-0.0822589
0.459542
-0.0886621
0.434554
-0.0946661
0.410089
-0.100195
0.386125
-0.105129
0.362756
-0.109424
0.339986
-0.113503
0.318097
-0.117217
0.297094
-0.119633
0.276555
-0.12067
0.256624
-0.120908
0.23799
-0.120601
0.220604
-0.119576
0.204283
-0.117408
0.188859
-0.114541
0.174772
-0.111475
0.162241
-0.107975
0.150929
-0.104184
0.140593
-0.100252
0.13105
-0.0954092
0.121277
-0.0884573
0.109639
-0.0767988
0.093124
-0.0561412
0.0667123
-0.0305677
0.0346777
-0.0124019
0.0114548
-0.00447939
0.00101474
-0.00153429
-0.00303239
-0.000458021
-0.00459799
-0.000210007
-0.00503772
-0.000249287
-0.00484542
-0.000208049
-0.00395264
-0.00195427
0.0100048
0.973059
0.0101362
1.0314
0.00984484
0.984268
0.00775068
0.942285
0.00506556
0.898614
0.00145999
0.859799
-0.00273253
0.821523
-0.00732851
0.785849
-0.0120724
0.751227
-0.0174282
0.718546
-0.0238218
0.6875
-0.0305893
0.65737
-0.0375355
0.628048
-0.0447826
0.599838
-0.0523064
0.572297
-0.0600332
0.545353
-0.0678729
0.518901
-0.0757294
0.492903
-0.0834907
0.467304
-0.0910365
0.4421
-0.0982286
0.417281
-0.104927
0.392823
-0.110941
0.368771
-0.116152
0.345198
-0.12027
0.322214
-0.122955
0.299779
-0.125054
0.278654
-0.126825
0.258395
-0.127833
0.238998
-0.12759
0.220361
-0.126132
0.202825
-0.124202
0.186929
-0.121904
0.172474
-0.118703
0.159041
-0.114509
0.146734
-0.109465
0.135549
-0.103526
0.125111
-0.09549
0.113242
-0.0829597
0.0971089
-0.0613453
0.0715096
-0.0342211
0.0395881
-0.0132841
0.0137408
-0.00261178
0.000782459
0.00215266
-0.0037497
0.00381258
-0.00469231
0.00386466
-0.00465006
0.0029813
-0.00415436
0.0016588
-0.00352292
0.000483263
-0.0027771
-0.00147101
0.00875192
0.964307
0.0097535
1.0304
0.0098641
0.984157
0.00911533
0.943034
0.00782899
0.899901
0.00566122
0.861967
0.0027831
0.824401
-0.000827765
0.789459
-0.00549577
0.755895
-0.0105467
0.723597
-0.0156464
0.692599
-0.021337
0.663061
-0.0278741
0.634585
-0.0350369
0.607001
-0.0427008
0.579961
-0.0507746
0.553427
-0.0591243
0.52725
-0.0676305
0.501409
-0.0761371
0.47581
-0.0844967
0.450459
-0.0925762
0.42536
-0.100246
0.400493
-0.107368
0.375893
-0.11383
0.35166
-0.119713
0.328097
-0.125382
0.305448
-0.129862
0.283133
-0.132789
0.261322
-0.134284
0.240493
-0.134767
0.220843
-0.134634
0.202692
-0.133292
0.185587
-0.130275
0.169457
-0.12629
0.155055
-0.12123
0.141675
-0.114638
0.128958
-0.105388
0.11586
-0.0907877
0.0986413
-0.06657
0.0728913
-0.0361714
0.0411109
-0.0110691
0.0144858
0.00342465
-0.000752999
0.00981894
-0.00561183
0.0118772
-0.00580801
0.0116433
-0.00445832
0.0100353
-0.00304207
0.00747873
-0.00159782
0.00448342
-0.000527614
0.00164199
6.43242e-05
0.000170985
0.0129024
0.951405
0.0148722
1.02843
0.0160176
0.983012
0.0149411
0.94411
0.0134249
0.901417
0.0109881
0.864404
0.00810105
0.827288
0.00459952
0.792961
0.000712918
0.759781
-0.0040633
0.728373
-0.0100264
0.698563
-0.0164956
0.66953
-0.0233085
0.641398
-0.0306842
0.614377
-0.0386829
0.58796
-0.0471974
0.561941
-0.0561625
0.536215
-0.0654457
0.510692
-0.0749197
0.485284
-0.0844328
0.459972
-0.093786
0.434713
-0.102806
0.409513
-0.111358
0.384445
-0.11919
0.359492
-0.125978
0.334886
-0.131218
0.310688
-0.13511
0.287026
-0.138354
0.264566
-0.140914
0.243053
-0.142613
0.222542
-0.142431
0.20251
-0.140434
0.18359
-0.138148
0.167171
-0.13436
0.151268
-0.12787
0.135185
-0.11744
0.118527
-0.100273
0.0986938
-0.0717603
0.0701283
-0.037571
0.038702
-0.00860216
0.0121421
0.00860219
-0.00271852
0.0161386
-0.00828944
0.0179217
-0.00739489
0.0172325
-0.00511882
0.0152005
-0.00242635
0.0123969
-0.000238394
0.0090567
0.00174233
0.00548458
0.0030445
0.00208871
0.0034602
0.00225969
0.00996649
0.941438
0.0128297
1.02557
0.0140355
0.981806
0.0147073
0.943439
0.0148232
0.901301
0.0139488
0.865278
0.0124606
0.828776
0.0098811
0.79554
0.00641298
0.763249
0.00243236
0.732354
-0.00174288
0.702738
-0.00690836
0.674696
-0.0131142
0.647604
-0.0200625
0.621325
-0.0278047
0.595702
-0.0363104
0.570447
-0.0454804
0.545385
-0.0551813
0.520393
-0.0652251
0.495328
-0.0754089
0.470156
-0.0855763
0.444881
-0.0955482
0.419485
-0.105136
0.394032
-0.114164
0.368519
-0.122498
0.34322
-0.130309
0.318498
-0.137531
0.294248
-0.143099
0.270134
-0.14695
0.246904
-0.148973
0.224565
-0.149688
0.203225
-0.15039
0.184292
-0.148038
0.164819
-0.141338
0.144568
-0.129995
0.123842
-0.110659
0.099191
-0.0780733
0.0661081
-0.0417447
0.0337997
-0.0135708
0.010528
0.0034533
-0.00488201
0.011224
-0.0104893
0.0140576
-0.0111229
0.014579
-0.00791633
0.0136288
-0.00416866
0.0116813
-0.000478787
0.0090349
0.00240798
0.00625066
0.00452656
0.00348028
0.00581489
0.00118468
0.0057558
0.00344437
0.0138972
0.927541
0.0172288
1.02223
0.0188988
0.980136
0.0186302
0.943707
0.0184405
0.901491
0.0173004
0.866418
0.0156596
0.830417
0.0135835
0.797617
0.0111094
0.765723
0.007587
0.735876
0.00282463
0.7075
-0.00262015
0.68014
-0.00871188
0.653696
-0.0155305
0.628144
-0.0231383
0.60331
-0.0316495
0.578958
-0.0410199
0.554756
-0.0511258
0.530499
-0.0618369
0.506039
-0.0729776
0.481297
-0.0842955
0.456199
-0.0955617
0.430751
-0.106642
0.405113
-0.117337
0.379214
-0.127237
0.353121
-0.135727
0.326988
-0.142469
0.30099
-0.148123
0.275788
-0.152355
0.251137
-0.155958
0.228167
-0.159301
0.206568
-0.158504
0.183495
-0.152235
0.15855
-0.141042
0.133376
-0.118922
0.101722
-0.0865248
0.0667942
-0.0564354
0.0360187
-0.0361716
0.0135359
-0.0260266
0.000383023
-0.0210507
-0.00985789
-0.0162541
-0.0152859
-0.0107252
-0.0166518
-0.00532347
-0.0133181
-0.00158135
-0.00791078
6.69402e-05
-0.00212708
0.000363618
0.0021113
0.000197055
0.00469313
-0.000143642
0.00615559
-0.000306747
0.00591891
0.00313762
0.00883855
0.918703
0.0134111
1.01766
0.0149723
0.978575
0.0168032
0.941876
0.0180845
0.900209
0.018519
0.865983
0.0181881
0.830748
0.0170142
0.79879
0.014924
0.767814
0.0124624
0.738338
0.00971801
0.710245
0.00598726
0.683871
0.000990812
0.658692
-0.00510974
0.634244
-0.0121521
0.610352
-0.0202045
0.58701
-0.0293347
0.563886
-0.0394757
0.54064
-0.0504259
0.516989
-0.0619182
0.492789
-0.0738006
0.468081
-0.0858677
0.442818
-0.0979574
0.417202
-0.109775
0.391032
-0.120994
0.364339
-0.131518
0.337513
-0.141523
0.310995
-0.150208
0.284473
-0.157659
0.258588
-0.163246
0.233753
-0.165
0.208322
-0.161146
0.17964
-0.151465
0.148869
-0.129772
0.111683
-0.103421
0.0753702
-0.0825999
0.0459731
-0.0716487
0.0250675
-0.0674495
0.00933669
-0.0619184
-0.00514814
-0.0552801
-0.0164962
-0.0465348
-0.0240312
-0.0361862
-0.0270004
-0.0250523
-0.0244519
-0.0151667
-0.0177965
-0.00802884
-0.0092649
-0.00441486
-0.00150267
-0.00279495
0.00307321
-0.00166981
0.00503045
-0.00074477
0.00499387
0.00239285
0.0124868
0.906216
0.0184295
1.01172
0.0182404
0.978764
0.0191491
0.940968
0.019819
0.89954
0.0197933
0.866009
0.0192695
0.831271
0.0186837
0.799376
0.0175525
0.768945
0.0156023
0.740288
0.0123122
0.713535
0.00851269
0.687671
0.00403424
0.663171
-0.0013652
0.639644
-0.00789577
0.616883
-0.0155303
0.594645
-0.0243818
0.572738
-0.0345086
0.550767
-0.0457298
0.528211
-0.057861
0.50492
-0.0706153
0.480835
-0.083851
0.456054
-0.0973858
0.430737
-0.110891
0.404537
-0.123864
0.377312
-0.136084
0.349732
-0.146247
0.321159
-0.155141
0.293367
-0.162773
0.26622
-0.166224
0.237205
-0.164961
0.207059
-0.158108
0.172787
-0.138912
0.129674
-0.118175
0.0909456
-0.104639
0.0618345
-0.100037
0.0413713
-0.0978478
0.0228781
-0.092746
0.00423491
-0.0869355
-0.0109586
-0.0802759