/*--------------------------------*- C++ -*----------------------------------*\
| =========                 |                                                 |
| \\      /  F ield         | OpenFOAM: The Open Source CFD Toolbox           |
|  \\    /   O peration     | Version:  v1912                                 |
|   \\  /    A nd           | Website:  www.openfoam.com                      |
|    \\/     M anipulation  |                                                 |
\*---------------------------------------------------------------------------*/
FoamFile
{
    version     2.0;
    format      ascii;
    class       volVectorField;
    location    "0.2";
    object      U;
}
// * * * * * * * * * * * * * * * * * * * * * * * * * * * * * * * * * * * * * //

dimensions      [0 1 -1 0 0 0 0];


internalField   nonuniform List<vector> 
6600
(
(39.8408 -0.0351237 0)
(40.1043 -0.0362617 7.13984e-21)
(40.1803 0.0716836 5.0186e-19)
(40.2428 0.183808 0)
(40.2917 0.305027 6.03602e-19)
(40.3484 0.474867 1.96584e-20)
(40.4025 0.642319 -2.18419e-20)
(40.475 0.821195 -2.47043e-20)
(40.5482 1.02568 5.31562e-19)
(40.5782 1.25718 -1.1257e-19)
(40.5904 1.50618 0)
(40.6156 1.74089 -7.34512e-19)
(40.6103 1.99803 0)
(40.5825 2.26883 -8.0099e-19)
(40.5637 2.54508 -1.27393e-18)
(40.5188 2.83707 -7.17635e-19)
(40.4607 3.14033 0)
(40.3834 3.45944 0)
(40.2863 3.79486 1.37202e-18)
(40.1755 4.14687 -1.24336e-18)
(40.0557 4.52098 -1.96283e-19)
(39.9285 4.91277 -7.96658e-19)
(39.7854 5.32059 -1.53476e-18)
(39.5768 5.69592 3.6121e-19)
(39.4082 6.11537 1.39136e-18)
(39.2629 6.60833 0)
(39.0251 7.12004 3.5831e-18)
(38.7332 7.63515 0)
(38.4668 8.21868 -1.89682e-18)
(38.2072 8.84946 -1.26645e-18)
(37.9305 9.48474 -3.47527e-19)
(37.6396 10.1555 -1.65668e-18)
(37.3582 10.8799 -7.04372e-19)
(37.0505 11.6477 1.46987e-18)
(36.7327 12.45 3.52613e-19)
(36.4417 13.3164 1.80025e-18)
(36.1566 14.2561 3.53059e-18)
(35.8793 15.249 3.51825e-18)
(35.636 16.3123 -2.61147e-18)
(35.4003 17.4471 2.79889e-18)
(35.1926 18.6539 1.49397e-18)
(35.0268 19.9427 0)
(34.8943 21.3103 -3.75834e-19)
(34.8024 22.773 9.32468e-19)
(34.7567 24.3025 0)
(34.7878 25.9802 -6.2814e-19)
(34.8359 27.6061 -1.7218e-18)
(35.1505 29.6836 0)
(33.5695 30.3086 0)
(23.9066 23.012 -1.574e-18)
(39.749 -0.0445834 4.16e-19)
(40.1946 -0.0598734 -3.95314e-19)
(40.2762 0.1059 0)
(40.3343 0.256607 -7.21939e-21)
(40.3849 0.427195 4.67881e-19)
(40.4546 0.610899 1.69585e-20)
(40.5224 0.810046 -1.78265e-22)
(40.5771 1.01933 -2.07249e-20)
(40.6087 1.2084 0)
(40.6469 1.41576 -8.23505e-19)
(40.6876 1.62352 -3.02883e-20)
(40.7127 1.87141 5.12659e-19)
(40.7458 2.11783 5.59598e-19)
(40.7661 2.38231 5.1689e-19)
(40.7681 2.66658 -4.17638e-21)
(40.7515 2.96743 6.86398e-20)
(40.7123 3.28318 -6.15916e-19)
(40.6583 3.61401 0)
(40.5834 3.96227 0)
(40.4921 4.32768 1.2885e-18)
(40.3795 4.71314 1.85485e-19)
(40.2401 5.11832 -9.89391e-19)
(40.0745 5.54563 -9.3967e-19)
(39.9519 6.07914 -1.12175e-18)
(39.7722 6.60071 -9.57239e-19)
(39.5021 7.0721 -4.1816e-19)
(39.2649 7.59198 -5.80853e-19)
(39.081 8.17744 -5.82276e-19)
(38.8486 8.74637 1.87457e-18)
(38.6016 9.33098 3.11782e-19)
(38.3693 9.99383 -2.49758e-18)
(38.1276 10.6968 2.33954e-18)
(37.8628 11.4226 1.68091e-18)
(37.5978 12.1853 -2.17254e-18)
(37.3495 13.0038 3.68457e-19)
(37.0977 13.8766 -1.8412e-18)
(36.8754 14.7912 1.46318e-18)
(36.6948 15.7726 -1.25443e-18)
(36.5124 16.8055 -8.22217e-19)
(36.3716 17.9103 -9.30041e-19)
(36.2708 19.0745 0)
(36.1961 20.3023 0)
(36.1679 21.5826 -1.02468e-21)
(36.232 22.9644 -6.76451e-20)
(36.4166 24.4291 -1.03937e-18)
(36.6692 26.0183 6.48585e-19)
(36.9461 27.5627 3.19532e-18)
(37.3769 29.3838 0)
(35.6594 29.5813 -4.06293e-18)
(24.6352 21.7446 1.76549e-18)
(39.6859 -0.00600491 -5.99493e-20)
(40.3303 -0.0460022 4.02471e-19)
(40.3729 0.133872 3.46296e-19)
(40.4557 0.279699 -4.18458e-22)
(40.5243 0.459316 -1.17562e-19)
(40.588 0.652307 1.42077e-20)
(40.6646 0.847059 0)
(40.7545 1.06789 0)
(40.8334 1.31467 0)
(40.8764 1.57784 4.045e-19)
(40.8916 1.85247 -2.38298e-20)
(40.9279 2.11159 -5.1608e-19)
(40.9315 2.40473 -3.44729e-19)
(40.9177 2.70759 5.94925e-19)
(40.9105 3.01469 3.29284e-19)
(40.8797 3.33942 -6.00479e-20)
(40.8342 3.67725 1.17344e-18)
(40.7725 4.03087 -5.90801e-19)
(40.6934 4.40357 -7.19185e-19)
(40.6014 4.79395 0)
(40.503 5.206 -5.3028e-19)
(40.3996 5.63689 7.91979e-19)
(40.2834 6.07786 9.5092e-19)
(40.1029 6.4829 1.13589e-18)
(39.9718 6.94528 1.03338e-18)
(39.8701 7.481 -1.10545e-19)
(39.6738 8.02201 -2.08735e-19)
(39.4247 8.56471 -6.37597e-19)
(39.2122 9.1845 -2.85694e-19)
(39.0122 9.84529 1.15361e-18)
(38.8002 10.5001 3.78783e-19)
(38.5838 11.1892 0)
(38.3889 11.9285 -1.92454e-18)
(38.1777 12.7052 5.21878e-19)
(37.9659 13.5063 1.1404e-18)
(37.7969 14.3578 1.57923e-18)
(37.6467 15.2711 -9.25426e-19)
(37.516 16.2231 -6.34013e-19)
(37.4411 17.2318 4.01006e-19)
(37.3918 18.2933 0)
(37.3943 19.4094 7.2928e-20)
(37.4633 20.581 0)
(37.5957 21.8098 0)
(37.7951 23.1008 1.17517e-18)
(38.0627 24.4258 7.54509e-19)
(38.4238 25.8587 -1.9176e-18)
(38.866 27.3489 -2.00826e-18)
(39.2616 28.7716 0)
(37.2577 28.4969 -2.52192e-18)
(24.8847 20.098 2.76039e-18)
(39.6408 -0.000503591 -3.58752e-19)
(40.4952 -0.0210614 2.19357e-21)
(40.5414 0.221708 -3.54935e-19)
(40.6097 0.378936 -2.41811e-19)
(40.673 0.593982 -3.60712e-19)
(40.7557 0.803209 -1.2133e-19)
(40.8166 1.03602 -1.09798e-20)
(40.8646 1.2542 0)
(40.9211 1.48238 1.54025e-19)
(40.9721 1.72006 1.88361e-19)
(41.0214 1.95793 -1.65119e-20)
(41.0525 2.23385 -2.05981e-20)
(41.0979 2.50538 -2.06538e-19)
(41.1263 2.80024 -1.27274e-19)
(41.1392 3.11359 -7.86228e-20)
(41.1326 3.44386 -4.48795e-20)
(41.1061 3.78998 -1.0003e-19)
(41.067 4.15232 6.62852e-19)
(41.0081 4.53379 9.10763e-19)
(40.9359 4.93286 0)
(40.8454 5.35275 1.39799e-19)
(40.729 5.79304 0)
(40.5878 6.24836 0)
(40.497 6.81032 -2.1454e-19)
(40.3518 7.36745 6.60029e-19)
(40.1165 7.87679 8.10184e-19)
(39.9224 8.42961 -1.66928e-19)
(39.7925 9.04278 9.07669e-19)
(39.6172 9.63466 0)
(39.4334 10.2399 0)
(39.2744 10.9211 4.83796e-19)
(39.1153 11.6368 0)
(38.9397 12.3698 5.00424e-19)
(38.7768 13.1322 7.38269e-19)
(38.6471 13.9429 -1.35911e-18)
(38.5231 14.7965 -1.31638e-18)
(38.4417 15.6753 8.31894e-19)
(38.4203 16.6074 -3.11223e-19)
(38.4097 17.5726 3.0806e-19)
(38.4604 18.5887 3.54873e-19)
(38.5719 19.6427 -7.37515e-19)
(38.7252 20.7343 0)
(38.9428 21.8469 0)
(39.27 23.0228 -8.41912e-19)
(39.7415 24.2493 -1.85587e-18)
(40.2896 25.5622 -5.95381e-19)
(40.8723 26.9053 -3.48625e-18)
(41.1993 28.0259 3.84958e-18)
(38.6621 27.2213 5.59143e-18)
(24.6587 18.1558 0)
(39.6258 0.0490614 -8.15387e-22)
(40.6646 0.00885586 1.44192e-19)
(40.7043 0.271347 1.4928e-19)
(40.783 0.411795 2.51062e-19)
(40.8562 0.627497 0)
(40.9304 0.84657 7.78355e-20)
(41.0226 1.06473 0)
(41.1233 1.32262 -5.84139e-21)
(41.1929 1.5942 -1.9046e-19)
(41.239 1.88507 -1.81794e-19)
(41.2668 2.19031 8.18739e-21)
(41.3112 2.47639 1.07557e-20)
(41.3208 2.80127 -1.19669e-20)
(41.3214 3.13061 -1.78686e-19)
(41.3196 3.46802 -3.35451e-19)
(41.3033 3.82139 2.41535e-20)
(41.2701 4.18988 -5.11122e-19)
(41.2216 4.57484 4.43366e-20)
(41.1605 4.97935 -2.56959e-19)
(41.0873 5.40115 -1.31331e-19)
(41.0117 5.84469 4.76417e-19)
(40.9335 6.30708 0)
(40.8481 6.77557 0)
(40.6939 7.19913 -2.25965e-19)
(40.5928 7.67947 -4.2623e-19)
(40.5362 8.24291 4.28184e-19)
(40.3935 8.81223 -1.19371e-19)
(40.1946 9.37365 0)
(40.0408 10.0125 1.59596e-19)
(39.9104 10.6925 -1.77768e-19)
(39.7732 11.3574 -4.9171e-19)
(39.6389 12.048 -4.68864e-19)
(39.5394 12.7819 2.1735e-19)
(39.4363 13.5481 -1.75583e-19)
(39.3411 14.3291 1.95378e-19)
(39.3046 15.1449 0)
(39.3017 16.0102 -1.85025e-19)
(39.3246 16.8958 4.82682e-19)
(39.4216 17.8196 -2.13329e-19)
(39.5588 18.7721 -3.31424e-19)
(39.7562 19.7538 6.79384e-19)
(40.0332 20.7619 0)
(40.3909 21.801 0)
(40.8273 22.8655 -1.77226e-18)
(41.3258 23.9221 3.87399e-18)
(41.9039 25.042 1.0498e-18)
(42.5247 26.2893 2.14706e-18)
(42.596 26.9586 -4.64481e-18)
(39.3291 25.5973 4.00392e-19)
(23.778 15.9038 -7.51146e-18)
(39.6453 0.0696521 1.10614e-19)
(40.8638 0.0384481 -1.1022e-19)
(40.9186 0.386627 -1.52744e-19)
(41.0071 0.521677 -8.69433e-21)
(41.0704 0.785911 0)
(41.1424 1.02142 4.89209e-20)
(41.2037 1.27463 -5.82343e-23)
(41.2566 1.51602 7.2861e-20)
(41.3216 1.75454 4.23503e-20)
(41.3837 2.00652 0)
(41.4396 2.28312 -1.15149e-21)
(41.4778 2.58992 -5.87127e-20)
(41.5398 2.88169 6.14444e-20)
(41.5722 3.20478 3.68752e-22)
(41.5979 3.54323 9.75395e-20)
(41.6061 3.90006 -4.69011e-21)
(41.5939 4.27409 1.96905e-19)
(41.5733 4.6636 -1.29108e-20)
(41.5348 5.07383 2.38123e-20)
(41.4846 5.50046 5.32392e-21)
(41.4206 5.94955 3.50096e-20)
(41.3334 6.42154 -3.46075e-21)
(41.2235 6.90889 6.37746e-20)
(41.173 7.50121 2.68918e-19)
(41.071 8.08612 0)
(40.871 8.6172 -3.24898e-19)
(40.7167 9.18782 6.59041e-20)
(40.6456 9.81938 -7.00724e-22)
(40.5354 10.4229 -8.7863e-20)
(40.4194 11.0297 8.61632e-20)
(40.3373 11.7085 -3.74374e-20)
(40.2661 12.4165 2.78069e-19)
(40.1828 13.1332 0)
(40.1214 13.8665 0)
(40.1119 14.6382 0)
(40.1164 15.4433 0)
(40.1702 16.2537 6.36087e-19)
(40.3011 17.1004 -1.17521e-18)
(40.4478 17.9587 0)
(40.6636 18.8436 4.09039e-20)
(40.9494 19.741 -2.2747e-19)
(41.2801 20.6497 -2.52561e-18)
(41.6739 21.5467 1.38831e-18)
(42.1718 22.4661 0)
(42.8161 23.4091 1.50718e-18)
(43.5232 24.4233 -5.43408e-18)
(44.1251 25.4182 3.94631e-18)
(43.9316 25.8021 3.02334e-18)
(39.6305 23.8061 1.11039e-17)
(22.1997 13.3944 -8.29395e-18)
(39.6984 0.0914231 -1.10431e-19)
(41.086 0.0472999 5.53725e-20)
(41.1308 0.441863 -9.56376e-22)
(41.23 0.553618 8.12805e-21)
(41.2868 0.814466 -1.10968e-19)
(41.3777 1.05092 2.91559e-21)
(41.485 1.30309 -1.73532e-19)
(41.5827 1.58352 -7.31529e-20)
(41.6586 1.88505 -2.40284e-19)
(41.7123 2.20556 5.54434e-21)
(41.7602 2.52165 1.52604e-19)
(41.8107 2.83652 -1.10833e-19)
(41.8322 3.19805 -6.21076e-20)
(41.8539 3.55406 0)
(41.8655 3.9236 0)
(41.8678 4.30713 -8.13597e-21)
(41.8544 4.70644 -1.36008e-19)
(41.8271 5.12264 0)
(41.7899 5.55766 -6.76007e-21)
(41.7416 6.00785 -2.45781e-20)
(41.6928 6.47738 -6.09339e-20)
(41.6431 6.96479 -7.70939e-20)
(41.5911 7.45509 0)
(41.4657 7.89345 -7.89411e-20)
(41.3933 8.38122 -1.38331e-21)
(41.3827 8.95549 1.54313e-21)
(41.301 9.5403 0)
(41.1565 10.1054 0)
(41.06 10.7415 -1.73942e-19)
(41.0005 11.4219 1.43416e-19)
(40.939 12.0786 -1.89668e-20)
(40.8825 12.7459 6.34995e-20)
(40.8721 13.4443 1.52796e-19)
(40.8732 14.1688 -4.04323e-19)
(40.8846 14.8966 8.55836e-19)
(40.965 15.6385 3.86037e-19)
(41.0931 16.4171 -4.61616e-19)
(41.2416 17.196 6.88009e-19)
(41.472 17.9929 -1.38856e-18)
(41.749 18.7944 5.43126e-20)
(42.0788 19.5998 -2.7538e-19)
(42.4859 20.4014 1.30525e-18)
(42.9789 21.2119 2.09043e-18)
(43.5537 22.0206 -2.32217e-18)
(44.1622 22.7945 1.49899e-18)
(44.8413 23.6785 0)
(45.2221 24.337 2.40252e-18)
(44.519 24.3763 3.70917e-18)
(38.8872 21.6549 -7.57431e-18)
(19.7188 10.6518 -2.30465e-18)
(39.7818 0.115706 -1.23793e-19)
(41.3363 0.071961 -8.8447e-20)
(41.401 0.539979 -1.40201e-21)
(41.5076 0.653879 1.7746e-19)
(41.5742 0.979407 3.2553e-19)
(41.6352 1.22835 -2.59278e-19)
(41.687 1.49411 4.75744e-19)
(41.767 1.7572 -1.7352e-19)
(41.8362 2.0329 2.36227e-19)
(41.9149 2.29413 2.41788e-19)
(41.9754 2.60816 -4.41449e-19)
(42.0267 2.93452 2.00778e-19)
(42.1096 3.24184 3.36203e-19)
(42.157 3.59289 -5.14373e-23)
(42.2013 3.95609 1.91839e-19)
(42.2333 4.33851 -2.36636e-19)
(42.2429 4.74042 1.31201e-19)
(42.2479 5.15568 0)
(42.2371 5.59269 0)
(42.2155 6.04441 0)
(42.1829 6.517 3.37795e-20)
(42.1295 7.01348 4.50036e-20)
(42.0542 7.52641 2.10602e-19)
(42.0509 8.14518 4.5979e-20)
(42.0021 8.75521 0)
(41.8404 9.29997 0)
(41.7179 9.86957 -2.22272e-19)
(41.7026 10.5028 9.26956e-20)
(41.6603 11.1058 -1.01734e-19)
(41.6084 11.6924 1.19329e-19)
(41.5947 12.3411 2.85897e-20)
(41.6045 13.0155 4.18117e-19)
(41.6041 13.6893 -1.72066e-19)
(41.6259 14.3616 7.16428e-19)
(41.7162 15.0578 -4.28195e-19)
(41.8248 15.7795 -1.87535e-19)
(41.9755 16.4844 1.5073e-19)
(42.2145 17.2075 6.22099e-19)
(42.4666 17.9222 5.94256e-19)
(42.78 18.6409 1.00782e-18)
(43.164 19.3496 -2.53009e-19)
(43.5884 20.0507 1.92928e-18)
(44.0633 20.7142 -2.14591e-18)
(44.6166 21.363 0)
(45.3125 22.0363 0)
(46.037 22.817 0)
(46.2214 23.1301 0)
(44.8719 22.8363 0)
(37.5881 19.3662 -4.29474e-18)
(16.3365 7.7673 7.05465e-18)
(39.8838 0.138911 1.24952e-19)
(41.6064 0.074644 0)
(41.6643 0.572323 0)
(41.7629 0.673822 -1.81517e-19)
(41.8404 0.988241 -2.08924e-19)
(41.935 1.23338 2.63722e-19)
(42.053 1.51605 -3.09923e-19)
(42.153 1.8231 1.74073e-19)
(42.2456 2.14123 -2.92768e-19)
(42.3048 2.5002 -2.4907e-19)
(42.3811 2.81316 2.6308e-19)
(42.4524 3.16898 -4.17332e-19)
(42.4962 3.5622 -5.88087e-19)
(42.5449 3.94447 0)
(42.5834 4.34267 -2.12911e-19)
(42.6124 4.7574 2.75309e-19)
(42.6267 5.18616 3.12763e-22)
(42.6292 5.63149 4.68381e-19)
(42.6222 6.09524 -5.81524e-19)
(42.6045 6.57266 0)
(42.5863 7.06504 0)
(42.5653 7.57172 -3.83193e-19)
(42.5462 8.0769 1.82656e-19)
(42.4546 8.52927 4.98954e-19)
(42.4036 9.0134 1.13907e-19)
(42.4328 9.5843 -4.59707e-19)
(42.418 10.1728 6.13013e-19)
(42.3278 10.7246 -6.46257e-19)
(42.2777 11.3332 3.23337e-19)
(42.2797 11.9938 -2.66366e-19)
(42.2845 12.6233 1.55655e-19)
(42.2882 13.2428 -4.29951e-19)
(42.3437 13.8769 3.63114e-19)
(42.427 14.5307 -5.31675e-19)
(42.5148 15.1781 0)
(42.6696 15.8146 -5.51642e-19)
(42.8853 16.4755 -5.3036e-19)
(43.1041 17.1192 1.48727e-19)
(43.4002 17.7624 1.27278e-18)
(43.7457 18.3911 -1.2498e-18)
(44.1267 19.0049 -2.24857e-19)
(44.5714 19.5894 -2.21948e-18)
(45.0995 20.1669 5.23369e-18)
(45.7181 20.7363 3.50849e-19)
(46.3742 21.3152 4.05018e-19)
(46.8152 21.7502 -2.10264e-18)
(46.6335 21.8417 0)
(44.2143 21.0088 3.82667e-18)
(34.7902 16.6158 -2.05007e-18)
(11.8093 4.72728 0)
(40.0089 0.181541 -1.50142e-21)
(41.9126 0.1041 -1.71854e-22)
(41.9834 0.645308 3.18577e-19)
(42.087 0.761061 0)
(42.1456 1.13869 6.0761e-21)
(42.222 1.39333 2.49186e-19)
(42.3052 1.67191 0)
(42.3802 1.95384 -3.42337e-19)
(42.4715 2.23903 3.15347e-19)
(42.5793 2.53372 -2.417e-20)
(42.6535 2.88274 -5.20902e-19)
(42.7238 3.21337 1.10164e-19)
(42.8269 3.54121 2.87809e-19)
(42.9024 3.91593 0)
(42.9704 4.3061 0)
(43.0325 4.71268 0)
(43.0742 5.13977 5.19139e-19)
(43.1101 5.58023 -4.71717e-19)
(43.1312 6.04172 9.88131e-19)
(43.1434 6.51684 -9.14172e-20)
(43.1458 7.0105 2.05999e-19)
(43.1283 7.52466 2.69632e-19)
(43.0897 8.05481 -1.0782e-18)
(43.1279 8.6842 -8.68567e-19)
(43.1357 9.31397 0)
(43.0157 9.86945 4.39717e-19)
(42.9136 10.4233 -1.07493e-18)
(42.9385 11.0413 6.07148e-19)
(42.9559 11.6323 -3.33578e-19)
(42.9551 12.1806 1.92231e-19)
(42.987 12.7734 -2.49448e-19)
(43.0547 13.3901 9.41905e-19)
(43.1134 14.0009 -9.82429e-19)
(43.1825 14.5915 1.38761e-18)
(43.3311 15.187 5.63539e-19)
(43.5029 15.8046 -1.32593e-18)
(43.6934 16.3858 1.66422e-18)
(43.9773 16.9685 -1.06729e-18)
(44.2713 17.5275 3.309e-20)
(44.6061 18.0728 0)
(45.0064 18.5902 1.79967e-18)
(45.4452 19.0918 1.23362e-18)
(45.9247 19.5451 1.36968e-19)
(46.4497 19.97 -3.47804e-18)
(47.1236 20.4561 -1.14425e-19)
(47.3302 20.602 -2.44377e-18)
(46.7618 20.4208 0)
(43.0109 18.9144 3.92614e-18)
(31.3041 13.6002 -6.60583e-18)
(6.76954 1.69451 0)
(40.1796 0.199622 0)
(42.2266 0.103276 0)
(42.3001 0.660165 -1.13693e-19)
(42.4017 0.73906 1.35159e-20)
(42.4775 1.10574 -2.90974e-19)
(42.5846 1.36661 -2.56462e-19)
(42.7024 1.67023 0)
(42.842 1.98267 3.43123e-19)
(42.9473 2.33833 -5.04058e-19)
(43.0156 2.68084 0)
(43.1331 3.01312 8.56643e-19)
(43.2388 3.41499 -8.49179e-20)
(43.3223 3.82898 4.95326e-20)
(43.4069 4.23718 -5.52158e-20)
(43.476 4.66283 0)
(43.5405 5.10383 0)
(43.5883 5.56127 -2.44009e-19)
(43.6243 6.03457 -3.90101e-19)
(43.6513 6.52302 1.21274e-19)
(43.6664 7.02565 -6.3117e-20)
(43.6793 7.54025 1.42572e-19)
(43.6858 8.06407 -8.05269e-20)
(43.6945 8.58086 6.42349e-19)
(43.6379 9.04691 2.59606e-19)
(43.5935 9.51616 -4.42597e-19)
(43.643 10.0667 -6.50109e-19)
(43.6914 10.6517 4.01554e-19)
(43.6514 11.183 6.25503e-19)
(43.6273 11.7434 0)
(43.6653 12.364 0)
(43.7137 12.9541 0)
(43.7476 13.5126 -6.69323e-19)
(43.8287 14.0644 -4.70109e-19)
(43.9579 14.6301 -4.57167e-19)
(44.083 15.1885 7.12543e-19)
(44.2563 15.7093 8.56544e-19)
(44.5068 16.2433 -3.71449e-19)
(44.7398 16.7486 1.18053e-18)
(45.0315 17.2395 -6.869e-19)
(45.3773 17.7023 -9.04694e-19)
(45.7412 18.1406 -1.10208e-18)
(46.1494 18.5302 1.22879e-18)
(46.6294 18.9038 0)
(47.2917 19.3477 1.85464e-18)
(47.633 19.5386 -1.02652e-18)
(47.5376 19.4904 1.34426e-18)
(46.0115 18.8414 0)
(40.3464 16.3944 -1.86929e-18)
(26.1212 9.91966 1.07262e-18)
(4.02064 0.218948 0)
(40.3414 0.216008 -1.97345e-19)
(42.5674 0.135272 0)
(42.644 0.713391 -4.72447e-19)
(42.7322 0.80718 3.05798e-19)
(42.8037 1.21476 2.83695e-19)
(42.9073 1.45964 -1.16501e-20)
(43.0024 1.75083 1.29657e-20)
(43.0986 2.05438 0)
(43.2159 2.33856 4.87236e-19)
(43.3636 2.68037 -3.38424e-19)
(43.459 3.03223 -3.3504e-19)
(43.5544 3.37037 4.126e-19)
(43.6851 3.72046 -2.7373e-19)
(43.7977 4.11707 -7.1161e-20)
(43.9 4.52754 4.02922e-20)
(43.9977 4.957 0)
(44.0738 5.40905 -4.38136e-19)
(44.1445 5.87293 4.99875e-19)
(44.2006 6.35762 5.87177e-20)
(44.2467 6.85498 -1.96532e-21)
(44.2839 7.36844 9.14514e-20)
(44.3011 7.89831 0)
(44.2985 8.44158 1.22929e-19)
(44.3611 9.06629 4.84951e-19)
(44.4182 9.71018 5.6686e-19)
(44.3387 10.2765 6.53595e-19)
(44.2374 10.8052 0)
(44.2716 11.3942 -4.3958e-19)
(44.3277 11.9704 -9.23975e-19)
(44.3566 12.4768 4.98879e-19)
(44.3987 12.9987 -1.04826e-18)
(44.4864 13.5416 -5.01826e-19)
(44.5737 14.082 8.72513e-19)
(44.6495 14.5901 -3.15617e-19)
(44.8049 15.0779 -7.18677e-19)
(44.9985 15.5898 -3.65427e-19)
(45.1754 16.0533 -5.06161e-19)
(45.4413 16.5042 0)
(45.7241 16.9216 -8.23603e-19)
(46.0199 17.3153 1.8272e-18)
(46.3693 17.6652 1.11591e-18)
(46.7603 18.0002 -1.31704e-18)
(47.2264 18.3237 1.62548e-18)
(47.6475 18.5598 -8.27328e-19)
(47.714 18.5743 2.16523e-18)
(47.1893 18.285 -1.25705e-20)
(44.4703 17.0803 0)
(36.5579 13.6451 3.77861e-18)
(19.869 6.22769 -3.17351e-18)
(1.71993 -0.285187 -1.12743e-18)
(40.5728 0.236176 1.97508e-19)
(42.9247 0.11287 -2.80549e-19)
(42.9901 0.683442 2.60897e-19)
(43.1007 0.729331 -3.00784e-19)
(43.1852 1.13355 -2.09253e-19)
(43.2953 1.37314 -1.38652e-20)
(43.4472 1.69824 7.8527e-21)
(43.6045 2.01628 0)
(43.7306 2.37468 -3.49742e-19)
(43.8472 2.72601 5.49408e-19)
(43.9993 3.08259 0)
(44.1585 3.50192 -3.33867e-20)
(44.2864 3.93365 1.93489e-20)
(44.4147 4.36358 3.40003e-19)
(44.5231 4.81556 -4.92823e-19)
(44.6274 5.28323 -1.76012e-21)
(44.7136 5.76631 6.56089e-20)
(44.7878 6.26612 0)
(44.8487 6.78092 -2.47865e-19)
(44.8959 7.308 4.9351e-19)
(44.936 7.84503 -5.6842e-20)
(44.9641 8.38746 0)
(44.9917 8.92044 0)
(44.968 9.40906 -2.44994e-19)
(44.9107 9.86179 1.00208e-19)
(44.9461 10.379 -7.23696e-19)
(45.037 10.9557 2.60906e-19)
(45.0374 11.4706 -1.47952e-19)
(45.0128 11.9741 4.57638e-19)
(45.0482 12.541 1.97383e-19)
(45.1076 13.0895 5.98091e-19)
(45.1402 13.5916 -6.22864e-19)
(45.2005 14.0613 3.95605e-19)
(45.3329 14.5342 -3.95528e-19)
(45.4629 15.0121 -4.5276e-19)
(45.6021 15.429 -4.7828e-19)
(45.8369 15.8471 0)
(46.0446 16.2322 1.12525e-18)
(46.2773 16.595 -4.18061e-19)
(46.569 16.9199 -9.87798e-19)
(46.872 17.2238 1.16763e-18)
(47.2142 17.4865 -2.68781e-20)
(47.6719 17.7642 -8.03514e-19)
(47.829 17.8337 -1.84666e-20)
(47.694 17.7316 -1.15916e-18)
(46.2422 17.0987 -2.7442e-18)
(41.5638 15.2454 1.53718e-18)
(30.4954 10.8182 0)
(10.2659 2.63169 -2.00865e-18)
(-0.197843 -0.165567 3.86687e-18)
(40.7338 0.224764 5.30698e-22)
(43.2623 0.117798 2.82146e-19)
(43.3306 0.705233 -9.02809e-20)
(43.4147 0.776541 -3.05549e-21)
(43.5068 1.17271 2.09591e-19)
(43.6445 1.40748 0)
(43.7418 1.69176 0)
(43.8816 1.99999 -1.10947e-20)
(44.0542 2.30324 6.0097e-19)
(44.2165 2.63937 -2.14912e-19)
(44.3604 2.99786 1.71967e-20)
(44.4857 3.34618 -3.9052e-20)
(44.6529 3.71431 1.81926e-19)
(44.8128 4.12559 -1.83059e-19)
(44.9549 4.55772 7.03549e-19)
(45.0943 5.00899 -1.5078e-19)
(45.2109 5.48583 1.73776e-19)
(45.3193 5.97649 4.6652e-20)
(45.4117 6.48728 -4.9246e-19)
(45.4913 7.00994 -3.22365e-19)
(45.5595 7.54642 1.66005e-21)
(45.606 8.09515 -7.84367e-20)
(45.6337 8.65394 0)
(45.6983 9.27098 -3.28034e-19)
(45.7863 9.92897 1.26816e-21)
(45.7454 10.5194 7.00953e-20)
(45.6269 11.0291 7.65133e-20)
(45.626 11.58 1.90326e-19)
(45.6831 12.1448 0)
(45.7152 12.6231 1.18557e-19)
(45.73 13.0773 6.56319e-19)
(45.7918 13.5408 5.84073e-19)
(45.8785 14.0124 -3.00833e-19)
(45.9312 14.4552 6.11039e-19)
(46.0416 14.8452 -4.93535e-19)
(46.2225 15.2619 -2.95428e-19)
(46.3528 15.6305 0)
(46.5477 15.9764 -7.54599e-19)
(46.7822 16.2826 -4.6815e-19)
(47.0069 16.5667 5.22908e-19)
(47.2697 16.8041 -6.09757e-19)
(47.6656 17.0925 6.77706e-19)
(47.8257 17.1961 0)
(47.7735 17.1727 4.96418e-19)
(46.9266 16.8272 0)
(44.0618 15.7279 6.73547e-19)
(36.8261 12.9442 -1.51601e-18)
(22.3292 7.32138 8.4818e-19)
(4.60143 0.968674 0)
(-1.08725 -0.0476504 2.55648e-19)
(40.9622 0.210707 7.71329e-23)
(43.5813 0.0650402 8.85949e-23)
(43.6911 0.597662 9.28585e-20)
(43.7873 0.637118 4.52931e-22)
(43.8866 1.02899 3.83072e-21)
(44.0219 1.24049 5.98577e-22)
(44.2314 1.55978 -6.66278e-22)
(44.3955 1.87361 1.60034e-21)
(44.5566 2.21215 -2.18706e-19)
(44.7286 2.57115 -4.49683e-21)
(44.9305 2.93149 -2.49544e-21)
(45.1413 3.36644 5.67432e-21)
(45.3289 3.80492 1.92308e-19)
(45.5161 4.26108 -2.2623e-19)
(45.6812 4.73771 -2.75359e-19)
(45.8343 5.23082 1.50704e-19)
(45.9643 5.74346 -1.68117e-19)
(46.0802 6.27346 -7.27464e-21)
(46.1782 6.82029 -8.364e-21)
(46.2568 7.37941 0)
(46.3208 7.94697 -1.09875e-20)
(46.3633 8.51775 -5.89271e-21)
(46.3989 9.07917 6.59358e-21)
(46.396 9.60458 0)
(46.3139 10.0616 0)
(46.2957 10.5479 2.82292e-19)
(46.3914 11.1176 0)
(46.4181 11.6364 -1.90575e-19)
(46.3704 12.0932 0)
(46.3569 12.5987 8.75875e-21)
(46.3863 13.1073 -3.0537e-19)
(46.3931 13.5703 2.14482e-20)
(46.3932 13.9775 -4.05184e-19)
(46.4814 14.3607 3.57665e-20)
(46.5974 14.7723 2.21015e-19)
(46.6676 15.1117 3.3371e-19)
(46.8403 15.437 -1.13926e-20)
(47.007 15.73 0)
(47.156 16.0032 -7.60513e-21)
(47.3619 16.2343 8.79116e-21)
(47.6673 16.5168 0)
(47.8166 16.6529 -1.05582e-20)
(47.8237 16.6773 -5.12958e-20)
(47.3694 16.5419 -4.36536e-19)
(45.5883 15.9 -8.8746e-21)
(40.6232 14.0778 0)
(29.8169 10.105 0)
(11.3907 3.2649 1.16649e-19)
(0.968651 0.307919 -1.15489e-19)
(-1.60165 -0.0965328 2.59561e-19)
(41.0847 0.137815 1.87351e-19)
(43.8677 0.0545702 2.08899e-19)
(43.972 0.58024 1.16138e-19)
(44.0755 0.602205 1.37021e-19)
(44.1875 0.996753 1.4528e-19)
(44.3343 1.183 -1.72943e-19)
(44.464 1.45633 0)
(44.6672 1.74166 0)
(44.8803 2.03944 1.38917e-19)
(45.1016 2.36928 4.49629e-21)
(45.2893 2.73287 -1.77009e-19)
(45.4645 3.07638 -1.26772e-20)
(45.6892 3.46299 -2.40095e-19)
(45.8944 3.88823 2.79922e-19)
(46.0816 4.33894 3.54398e-19)
(46.2718 4.81591 0)
(46.4385 5.32026 0)
(46.5927 5.84265 7.27301e-21)
(46.7254 6.38926 8.36226e-21)
(46.8407 6.94764 -3.51859e-19)
(46.9383 7.51995 1.0985e-20)
(47.009 8.10098 0)
(47.0596 8.68905 0)
(47.106 9.30951 -7.03652e-20)
(47.1942 9.9861 -3.39105e-19)
(47.1905 10.6272 9.97975e-20)
(47.0522 11.151 0)
(46.9727 11.6701 -2.43865e-19)
(46.9785 12.2307 0)
(46.9836 12.7083 -8.7556e-21)
(46.9422 13.1178 0)
(46.9283 13.5069 0)
(46.9811 13.9077 1.09617e-19)
(47.0021 14.3081 1.25926e-19)
(47.024 14.6219 0)
(47.1597 14.9541 0)
(47.2424 15.2514 1.13861e-20)
(47.338 15.5266 0)
(47.5044 15.7575 7.6e-21)
(47.7101 16.0146 -2.88812e-19)
(47.8731 16.2084 3.04263e-19)
(47.9025 16.258 2.11073e-20)
(47.6432 16.2321 1.17039e-20)
(46.4156 15.8491 -4.89211e-19)
(42.7584 14.5571 -2.79433e-19)
(34.479 11.616 1.59695e-18)
(19.5557 6.22114 -7.14154e-19)
(4.25313 1.23225 -8.17701e-19)
(-1.21016 0.197102 6.74958e-19)
(-1.71289 -0.0221094 0)
(41.2244 0.126312 -1.86577e-19)
(44.1456 -0.032581 2.42536e-19)
(44.2599 0.430891 -1.14023e-19)
(44.3881 0.407088 1.58883e-19)
(44.5055 0.760292 -1.5421e-19)
(44.706 0.920419 1.7805e-19)
(44.9241 1.21919 1.38078e-20)
(45.1343 1.51103 -1.53789e-20)
(45.3584 1.84107 -1.20119e-19)
(45.577 2.16885 -2.08419e-20)
(45.8451 2.5278 1.88246e-19)
(46.1164 2.9638 4.87332e-19)
(46.368 3.40763 -3.13716e-19)
(46.6167 3.87643 -2.5663e-19)
(46.8485 4.37196 -1.16193e-18)
(47.08 4.89282 5.39979e-20)
(47.2863 5.44186 -6.02281e-20)
(47.4568 6.01278 6.00218e-19)
(47.5999 6.6022 8.26395e-20)
(47.7166 7.20762 2.59121e-19)
(47.8075 7.82463 0)
(47.8654 8.44466 0)
(47.9018 9.0586 0)
(47.9023 9.64624 0)
(47.7975 10.15 3.37413e-19)
(47.6939 10.6275 -8.56956e-19)
(47.7394 11.1964 0)
(47.7689 11.7522 7.84772e-19)
(47.6885 12.1998 0)
(47.5862 12.6509 0)
(47.5337 13.1183 -7.62842e-19)
(47.4947 13.5588 4.14365e-19)
(47.4145 13.9369 -9.32121e-19)
(47.4019 14.2369 2.68837e-19)
(47.488 14.5828 0)
(47.4882 14.8685 0)
(47.5604 15.1259 3.93309e-19)
(47.6885 15.3472 -1.3417e-18)
(47.8066 15.585 0)
(47.9617 15.8162 -8.21169e-19)
(48.0022 15.8919 1.24519e-18)
(47.808 15.908 -1.51034e-18)
(46.9245 15.69 8.57507e-19)
(44.1681 14.7686 -9.9427e-19)
(37.737 12.5616 2.50957e-18)
(25.47 8.26218 -2.19463e-18)
(8.18276 2.45359 1.41218e-18)
(0.303314 0.549642 -3.1494e-18)
(-2.15446 0.14086 3.71111e-18)
(-1.5984 0.0722687 -2.39332e-18)
(41.2403 0.0433238 -4.28516e-19)
(44.3551 -0.0821874 2.85974e-20)
(44.4669 0.354706 0)
(44.5803 0.319746 -2.93597e-19)
(44.7289 0.658989 -7.41033e-19)
(44.8954 0.784668 2.4777e-20)
(45.1121 1.02914 0)
(45.3554 1.27369 0)
(45.6164 1.53502 -4.08873e-20)
(45.9087 1.85416 4.55472e-20)
(46.154 2.19663 -9.08538e-19)
(46.4057 2.53342 5.78404e-19)
(46.7013 2.92428 5.68137e-19)
(46.9809 3.35878 -7.29832e-19)
(47.2432 3.8283 7.71249e-19)
(47.4876 4.33306 1.20568e-19)
(47.7027 4.86967 -1.28869e-18)
(47.9105 5.43167 -1.93548e-18)
(48.0989 6.02437 0)
(48.2604 6.63598 8.86709e-19)
(48.3944 7.26522 1.01657e-18)
(48.4925 7.90389 0)
(48.5624 8.54755 -1.32114e-18)
(48.59 9.20259 0)
(48.648 9.91142 0)
(48.6737 10.6363 8.54298e-19)
(48.5327 11.2343 5.59975e-19)
(48.3503 11.7524 1.21922e-18)
(48.2406 12.3161 0)
(48.1755 12.8256 0)
(48.0616 13.235 3.64318e-19)
(47.9288 13.5739 4.42141e-19)
(47.8921 13.8893 1.51636e-18)
(47.8845 14.2515 3.23114e-21)
(47.797 14.5116 5.77701e-21)
(47.8405 14.7599 -1.41552e-18)
(47.9012 14.9855 -1.25356e-20)
(47.9364 15.2196 1.77696e-18)
(48.0813 15.4669 9.75313e-19)
(48.1232 15.5622 5.47174e-19)
(47.9651 15.603 1.33879e-18)
(47.2837 15.4823 2.70141e-20)
(45.1907 14.8434 -1.71837e-18)
(39.9856 13.1232 -9.8093e-19)
(29.4698 9.51852 -2.76438e-18)
(12.6512 3.9123 3.09323e-18)
(2.2699 1.03297 -1.3786e-18)
(-1.59353 0.373116 0)
(-2.41667 0.203862 0)
(-1.39528 0.14038 4.7065e-19)
(41.1756 0.0092865 1.30159e-18)
(44.4905 -0.179762 5.27181e-19)
(44.6527 0.140704 -5.70451e-19)
(44.7868 0.0697395 2.04378e-20)
(44.9494 0.356823 1.4724e-18)
(45.2043 0.446983 -2.62669e-20)
(45.4494 0.710144 0)
(45.7325 0.938763 -1.19734e-18)
(46.007 1.23488 -4.39302e-20)
(46.2917 1.51193 -2.62942e-21)
(46.6467 1.85891 1.93777e-18)
(46.9945 2.27727 -9.91885e-19)
(47.3208 2.71564 4.09669e-21)
(47.6531 3.18119 6.35293e-19)
(47.9668 3.69194 0)
(48.2785 4.23626 0)
(48.5675 4.82059 9.96915e-19)
(48.837 5.43624 1.50409e-18)
(49.0713 6.08347 0)
(49.2429 6.75412 -8.83645e-19)
(49.3771 7.44419 -1.01285e-18)
(49.4651 8.14289 -3.07842e-19)
(49.5111 8.84334 1.97585e-19)
(49.5022 9.52782 1.26363e-18)
(49.3958 10.1403 4.41954e-19)
(49.2045 10.6646 4.98468e-19)
(49.142 11.2499 -1.6192e-18)
(49.1291 11.8765 -1.18613e-18)
(49.0145 12.3805 1.44798e-18)
(48.8065 12.8143 -1.60106e-18)
(48.6103 13.2415 0)
(48.4851 13.6569 0)
(48.3264 14.0429 2.80268e-20)
(48.1489 14.2769 -1.16437e-18)
(48.1521 14.5298 1.32201e-18)
(48.1132 14.7507 2.206e-18)
(48.0837 14.9524 -8.08352e-19)
(48.2232 15.1671 -1.74994e-18)
(48.2565 15.267 -1.96907e-18)
(48.1155 15.3043 -1.17924e-18)
(47.5652 15.2557 -2.11059e-20)
(45.9208 14.8206 1.5114e-18)
(41.5733 13.442 0)
(32.229 10.3042 9.71695e-19)
(16.5726 5.18455 1.08915e-18)
(4.28522 1.64322 1.21178e-18)
(-0.788322 0.702914 4.06475e-18)
(-2.3904 0.431773 -1.5133e-18)
(-2.38771 0.339226 0)
(-1.18919 0.184307 0)
(41.0435 -0.0217343 1.03399e-20)
(44.5476 -0.237485 -1.0039e-18)
(44.7356 0.0349299 5.88041e-19)
(44.878 -0.0549377 -1.34385e-18)
(45.0515 0.203797 -8.00556e-19)
(45.278 0.246244 -1.33204e-21)
(45.5291 0.424574 3.19157e-20)
(45.8156 0.614595 1.11606e-18)
(46.172 0.813021 8.77765e-20)
(46.5258 1.10744 1.09439e-19)
(46.8489 1.40262 -9.63991e-19)
(47.197 1.71344 -1.43797e-19)
(47.5778 2.09019 -1.43417e-18)
(47.9495 2.51948 -1.69179e-18)
(48.3115 2.99534 2.4672e-19)
(48.6501 3.52043 -2.75198e-19)
(48.962 4.0909 0)
(49.2394 4.7009 -1.59558e-18)
(49.4817 5.35004 0)
(49.713 6.027 0)
(49.9068 6.73462 0)
(50.048 7.46479 -6.78139e-19)
(50.1488 8.19945 2.21218e-18)
(50.1893 8.94106 -1.64858e-18)
(50.2036 9.709 0)
(50.2549 10.5448 -5.47298e-19)
(50.1289 11.2962 -1.95881e-18)
(49.8616 11.885 -2.85167e-18)
(49.5854 12.4746 -2.18401e-18)
(49.3793 13.0444 1.51454e-18)
(49.1736 13.513 -1.81948e-18)
(48.8998 13.868 1.00789e-18)
(48.6726 14.0902 2.25962e-18)
(48.5993 14.3758 0)
(48.4159 14.5838 1.40461e-18)
(48.3045 14.7397 -2.93349e-18)
(48.3877 14.9038 -1.19995e-20)
(48.3601 15.0105 1.79095e-18)
(48.2314 15.0192 1.02387e-18)
(47.7712 15.0105 0)
(46.415 14.6998 1.33843e-18)
(42.7726 13.594 -1.53618e-18)
(34.2942 10.8243 3.4458e-18)
(19.5476 6.13414 0)
(6.24903 2.30261 -4.29174e-18)
(0.299254 1.10464 1.19233e-18)
(-1.97592 0.832793 -1.33023e-18)
(-2.66839 0.767474 -1.48035e-18)
(-2.31275 0.587103 3.31155e-18)
(-1.05469 0.253654 1.17719e-21)
(40.8245 -0.0810027 -9.02202e-19)
(44.5497 -0.367291 1.02271e-18)
(44.7742 -0.175565 -1.169e-18)
(44.9479 -0.329372 2.69546e-18)
(45.1417 -0.133319 -1.61916e-18)
(45.44 -0.13313 1.14756e-19)
(45.7472 0.0662078 -1.1466e-18)
(46.0902 0.221393 0)
(46.4111 0.441573 -1.51323e-18)
(46.7797 0.653179 1.91003e-18)
(47.22 0.955461 8.09565e-21)
(47.657 1.33313 -1.50825e-19)
(48.0778 1.73463 1.42936e-18)
(48.5133 2.18269 -9.79524e-20)
(48.9377 2.68665 1.84647e-18)
(49.3574 3.2407 2.94128e-19)
(49.7557 3.85062 0)
(50.1314 4.50951 1.58841e-18)
(50.4713 5.21748 3.99746e-18)
(50.7473 5.96732 0)
(50.9762 6.74914 0)
(51.1596 7.55041 0)
(51.2427 8.37296 -2.66096e-18)
(51.2535 9.19794 -4.92301e-18)