/*--------------------------------*- C++ -*----------------------------------*\
| =========                 |                                                 |
| \\      /  F ield         | OpenFOAM: The Open Source CFD Toolbox           |
|  \\    /   O peration     | Version:  v1912                                 |
|   \\  /    A nd           | Website:  www.openfoam.com                      |
|    \\/     M anipulation  |                                                 |
\*---------------------------------------------------------------------------*/
FoamFile
{
    version     2.0;
    format      ascii;
    class       surfaceScalarField;
    location    "0.28";
    object      phi;
}
// * * * * * * * * * * * * * * * * * * * * * * * * * * * * * * * * * * * * * //

dimensions      [0 3 -1 0 0 0 0];
oriented        oriented;


internalField   nonuniform List<scalar> 
13060
(
0.00572953
0.98847
-0.994199
0.00772173
0.945646
-0.947638
0.00904267
0.900105
-0.901426
0.00994547
0.856595
-0.857498
0.0105385
0.815931
-0.816524
0.0106373
0.777609
-0.777708
0.0106289
0.74086
-0.740851
0.010695
0.705437
-0.705503
0.0107478
0.671677
-0.671729
0.0106964
0.63937
-0.639319
0.0106218
0.60836
-0.608285
0.0106304
0.578644
-0.578652
0.0107078
0.550213
-0.55029
0.0108121
0.522927
-0.523032
0.0109294
0.496751
-0.496868
0.0110633
0.471648
-0.471782
0.0111841
0.447559
-0.447679
0.0112869
0.424532
-0.424635
0.01134
0.402525
-0.402578
0.0115381
0.381324
-0.381522
0.0120988
0.361015
-0.361576
0.0125763
0.341751
-0.342229
0.0124564
0.323815
-0.323695
0.0121796
0.306353
-0.306076
0.0121406
0.289448
-0.289409
0.0121497
0.273609
-0.273618
0.0119916
0.258679
-0.258521
0.0117491
0.244405
-0.244163
0.0115198
0.230916
-0.230686
0.0112321
0.218262
-0.217974
0.0108381
0.2063
-0.205906
0.0103888
0.194998
-0.194549
0.00989248
0.184386
-0.183889
0.00931818
0.1744
-0.173825
0.00866708
0.164981
-0.16433
0.00797182
0.156198
-0.155503
0.00722018
0.148001
-0.147249
0.00641303
0.140365
-0.139558
0.00555595
0.133286
-0.132429
0.00465493
0.126684
-0.125783
0.00375293
0.120505
-0.119603
0.0028417
0.114789
-0.113877
0.00192755
0.109438
-0.108524
0.00103507
0.104463
-0.103571
0.000175185
0.0998204
-0.0989605
-0.000687324
0.0956913
-0.0948288
-0.00156307
0.0915317
-0.0906559
-0.00217058
0.0881529
-0.0875454
-0.00188118
0.0802583
-0.0805477
0.0538603
-0.0557414
0.00583917
0.982631
0.0065591
0.944926
0.00686708
0.899797
0.00669483
0.856768
0.00656259
0.816063
0.00676345
0.777408
0.00695377
0.740669
0.00686835
0.705522
0.00673905
0.671806
0.00669745
0.639412
0.00668077
0.608376
0.00654796
0.578776
0.00639443
0.550366
0.00624717
0.523074
0.00610515
0.496893
0.0060038
0.47175
0.00593926
0.447623
0.00593908
0.424532
0.00597825
0.402486
0.00584011
0.381462
0.00536514
0.36149
0.00488326
0.342233
0.00516449
0.323533
0.00559597
0.305921
0.00556535
0.289478
0.00537839
0.273796
0.00535279
0.258704
0.00529363
0.244464
0.00509383
0.231116
0.00484337
0.218513
0.00460208
0.206541
0.00429538
0.195305
0.00390783
0.184773
0.00349865
0.174809
0.0030419
0.165437
0.00253893
0.156701
0.00199351
0.148546
0.00141768
0.14094
0.000830622
0.133873
0.00023567
0.127279
-0.000409113
0.12115
-0.00104196
0.115421
-0.00164366
0.110039
-0.0021976
0.105017
-0.00271482
0.100338
-0.00311916
0.0960957
-0.00351493
0.0919275
-0.00340947
0.0880474
-0.00250955
0.0793583
0.0513507
0.00546468
0.977166
0.00631198
0.944079
0.0063469
0.899762
0.00567006
0.857445
0.00487379
0.816859
0.0037872
0.778494
0.0027703
0.741686
0.00208436
0.706208
0.00140712
0.672483
0.000642778
0.640176
-2.82025e-05
0.609047
-0.000498609
0.579247
-0.000842884
0.550711
-0.00110401
0.523336
-0.00128663
0.497075
-0.00143547
0.471898
-0.00156138
0.447749
-0.00167675
0.424648
-0.00178949
0.402599
-0.00161526
0.381288
-0.000998291
0.360873
-0.000613639
0.341848
-0.000972442
0.323892
-0.00130767
0.306257
-0.00116782
0.289338
-0.00104807
0.273676
-0.00116155
0.258818
-0.00126434
0.244567
-0.0013104
0.231162
-0.00140847
0.218611
-0.00160398
0.206737
-0.00180512
0.195506
-0.00201874
0.184987
-0.00229389
0.175084
-0.00260506
0.165749
-0.0029343
0.157031
-0.0032775
0.148889
-0.00364026
0.141303
-0.0040177
0.134251
-0.00440064
0.127662
-0.00473744
0.121487
-0.00504007
0.115724
-0.00530066
0.1103
-0.00550004
0.105217
-0.00561735
0.100455
-0.00562572
0.096104
-0.0055437
0.0918454
-0.00483431
0.087338
-0.00321828
0.0777423
0.0481324
0.0040892
0.973077
0.00356546
0.944602
0.00236634
0.900961
0.0012528
0.858558
0.000261506
0.817851
-0.000417499
0.779173
-0.0012552
0.742524
-0.00219864
0.707152
-0.00296274
0.673247
-0.00358173
0.640795
-0.00412145
0.609587
-0.00471379
0.579839
-0.00526698
0.551264
-0.00577463
0.523843
-0.00621332
0.497514
-0.00655364
0.472239
-0.00681228
0.448008
-0.00696553
0.424801
-0.00703661
0.40267
-0.00742696
0.381678
-0.00806194
0.361508
-0.00836431
0.342151
-0.00796691
0.323495
-0.00763052
0.30592
-0.00772706
0.289435
-0.00779303
0.273742
-0.00768464
0.258709
-0.00764318
0.244526
-0.00769583
0.231214
-0.00774875
0.218664
-0.00777867
0.206767
-0.00785946
0.195587
-0.00797919
0.185106
-0.00809453
0.175199
-0.00822608
0.16588
-0.00837363
0.157178
-0.00852575
0.149042
-0.00867306
0.141451
-0.00879621
0.134374
-0.00887461
0.12774
-0.00891242
0.121524
-0.00888601
0.115698
-0.00878234
0.110196
-0.00859313
0.105027
-0.00830989
0.100172
-0.00786091
0.095655
-0.00732208
0.0913066
-0.0062011
0.086217
-0.00392515
0.0754663
0.0442073
0.00377847
0.969298
0.00285767
0.945523
0.00129495
0.902524
-0.000122744
0.859976
-0.00209872
0.819826
-0.00420413
0.781279
-0.00593458
0.744254
-0.00744035
0.708658
-0.00882188
0.674629
-0.0101866
0.64216
-0.0114039
0.610804
-0.0123463
0.580781
-0.0130948
0.552012
-0.0136888
0.524437
-0.0141636
0.497989
-0.0145353
0.472611
-0.0148505
0.448323
-0.0151047
0.425055
-0.0152191
0.402784
-0.0148949
0.381354
-0.0142562
0.36087
-0.0140093
0.341904
-0.0144185
0.323904
-0.0147181
0.30622
-0.0144768
0.289194
-0.0142632
0.273529
-0.0142694
0.258716
-0.0142268
0.244483
-0.0141026
0.23109
-0.0140088
0.21857
-0.0139813
0.206739
-0.0139279
0.195533
-0.0138549
0.185033
-0.0138046
0.175149
-0.0137539
0.16583
-0.013695
0.157119
-0.0136215
0.148968
-0.0135198
0.141349
-0.0133797
0.134234
-0.0131913
0.127552
-0.0129383
0.121271
-0.0126078
0.115367
-0.0121963
0.109785
-0.0116808
0.104512
-0.0110566
0.0995475
-0.0102953
0.0948938
-0.00937829
0.0903896
-0.00775247
0.0845912
-0.00467406
0.0723879
0.0395332
0.00164974
0.967649
-0.00051281
0.947686
-0.00333929
0.90535
-0.00551246
0.862149
-0.00740425
0.821718
-0.00902962
0.782904
-0.0107471
0.745972
-0.0123973
0.710308
-0.0138065
0.676038
-0.0149404
0.643294
-0.01591
0.611774
-0.0168845
0.581756
-0.0177655
0.552893
-0.0185414
0.525213
-0.0192022
0.49865
-0.019726
0.473134
-0.020124
0.448721
-0.0203916
0.425323
-0.0206248
0.403017
-0.021246
0.381975
-0.0220479
0.361672
-0.0222086
0.342064
-0.0215953
0.323291
-0.0211239
0.305748
-0.0212006
0.28927
-0.0211661
0.273494
-0.0208683
0.258418
-0.0206283
0.244243
-0.0204829
0.230945
-0.0202965
0.218383
-0.0200505
0.206493
-0.0198356
0.195318
-0.0196309
0.184829
-0.0193923
0.17491
-0.0191419
0.165579
-0.0188703
0.156848
-0.0185668
0.148665
-0.0182264
0.141008
-0.0178285
0.133836
-0.0173517
0.127075
-0.0168043
0.120724
-0.016165
0.114728
-0.0154218
0.109042
-0.0145809
0.103671
-0.013655
0.0986217
-0.0126821
0.0939208
-0.0113171
0.0890246
-0.00919763
0.0824717
-0.00536774
0.068558
0.0341655
0.00107901
0.96657
-0.00150798
0.950273
-0.00444284
0.908285
-0.00736011
0.865066
-0.0104939
0.824852
-0.013469
0.785879
-0.0160339
0.748537
-0.018275
0.712549
-0.0204273
0.67819
-0.0224458
0.645312
-0.0242164
0.613545
-0.0255956
0.583135
-0.026711
0.554009
-0.0276093
0.526111
-0.0283068
0.499347
-0.0288445
0.473672
-0.0292399
0.449116
-0.0295272
0.42561
-0.0295929
0.403083
-0.0290245
0.381407
-0.0282036
0.360851
-0.0279904
0.341851
-0.0284296
0.32373
-0.0285705
0.305889
-0.028108
0.288808
-0.0277127
0.273099
-0.0275345
0.25824
-0.0272532
0.243962
-0.0268563
0.230548
-0.0264801
0.218007
-0.026141
0.206154
-0.0257472
0.194925
-0.0253103
0.184392
-0.024863
0.174463
-0.0243881
0.165104
-0.0238829
0.156343
-0.0233383
0.14812
-0.0227343
0.140404
-0.0220627
0.133164
-0.0213319
0.126344
-0.020518
0.11991
-0.0196192
0.113829
-0.0186426
0.108065
-0.0175744
0.102603
-0.016396
0.0974433
-0.0151809
0.0927057
-0.0134108
0.0872546
-0.0107099
0.0797708
-0.00601689
0.063865
0.0281486
-0.000432572
0.967002
-0.00521211
0.955052
-0.00947781
0.912551
-0.013117
0.868705
-0.016195
0.82793
-0.0188437
0.788528
-0.0214005
0.751094
-0.0238098
0.714958
-0.0258394
0.68022
-0.027429
0.646902
-0.028798
0.614914
-0.0301315
0.584469
-0.031306
0.555183
-0.0323214
0.527127
-0.0331788
0.500205
-0.0338573
0.474351
-0.0343458
0.449605
-0.0346691
0.425934
-0.0350265
0.40344
-0.0358183
0.382199
-0.03666
0.361692
-0.0365923
0.341784
-0.0357305
0.322868
-0.0350847
0.305243
-0.0349638
0.288687
-0.0346811
0.272816
-0.0341131
0.257672
-0.0335904
0.243439
-0.0331422
0.2301
-0.0326232
0.217488
-0.0320193
0.20555
-0.0314213
0.194327
-0.0308102
0.183781
-0.0301474
0.1738
-0.0294515
0.164408
-0.0287112
0.155602
-0.0279179
0.147327
-0.0270787
0.139565
-0.0261804
0.132266
-0.0251961
0.12536
-0.0241348
0.118849
-0.0229855
0.11268
-0.0217463
0.106826
-0.0204478
0.101304
-0.0191382
0.0961337
-0.0175429
0.0911105
-0.0154153
0.0851269
-0.0120999
0.0764555
-0.00654663
0.0583117
0.021602
-0.000990801
0.967993
-0.00593515
0.959997
-0.0107247
0.91734
-0.015237
0.873218
-0.0195125
0.832206
-0.0235082
0.792524
-0.026997
0.754582
-0.0300755
0.718037
-0.0329224
0.683067
-0.035598
0.649577
-0.0379058
0.617221
-0.0397151
0.586278
-0.0411943
0.556662
-0.0423747
0.528307
-0.0432546
0.501085
-0.0439057
0.475002
-0.044355
0.450054
-0.044605
0.426184
-0.0445037
0.403339
-0.0436739
0.381369
-0.0426349
0.360653
-0.0423564
0.341505
-0.042685
0.323197
-0.0426043
0.305163
-0.0418686
0.287951
-0.0411656
0.272113
-0.0406641
0.25717
-0.0400544
0.242829
-0.0393005
0.229346
-0.038545
0.216733
-0.0378129
0.204818
-0.0370134
0.193527
-0.0361493
0.182917
-0.0352605
0.172911
-0.0343316
0.163479
-0.033362
0.154633
-0.0323519
0.146317
-0.031281
0.138494
-0.0301329
0.131118
-0.0289292
0.124156
-0.0276526
0.117572
-0.0263125
0.11134
-0.0249224
0.105436
-0.0234554
0.0998372
-0.0220083
0.0946866
-0.0200219
0.0891241
-0.0174616
0.0825666
-0.0133093
0.0723031
-0.00679457
0.051797
0.0148074
-0.00253949
0.970532
-0.0098496
0.967307
-0.0158847
0.923375
-0.0210298
0.878363
-0.0253457
0.836521
-0.0291082
0.796286
-0.0325992
0.758073
-0.0357312
0.721169
-0.038355
0.685691
-0.0404226
0.651645
-0.0422012
0.619
-0.0438909
0.587968
-0.0453527
0.558124
-0.0465898
0.529544
-0.0476199
0.502115
-0.0484244
0.475806
-0.048993
0.450623
-0.0493889
0.426579
-0.04984
0.40379
-0.0506789
0.382208
-0.0514152
0.36139
-0.0510604
0.34115
-0.0498955
0.322032
-0.0489609
0.304228
-0.048533
0.287523
-0.04795
0.27153
-0.0470318
0.256252
-0.0461151
0.241913
-0.0452836
0.228514
-0.0443811
0.21583
-0.0433628
0.2038
-0.0423321
0.192496
-0.0412856
0.18187
-0.0401778
0.171804
-0.0390343
0.162336
-0.0378552
0.153453
-0.0366239
0.145085
-0.0353442
0.137215
-0.0340216
0.129795
-0.0326304
0.122765
-0.031178
0.11612
-0.0296483
0.10981
-0.0280494
0.103837
-0.0265331
0.0983208
-0.0247558
0.0929094
-0.0224807
0.0868489
-0.0192459
0.0793318
-0.0138397
0.0668969
-0.00583124
0.0437885
0.00897616
-0.0037783
0.974311
-0.0105859
0.974114
-0.0168565
0.929646
-0.022988
0.884494
-0.0285762
0.84211
-0.0336499
0.80136
-0.0380135
0.762437
-0.0418523
0.725008
-0.0454369
0.689275
-0.0487776
0.654986
-0.0516424
0.621865
-0.053906
0.590231
-0.0557555
0.559974
-0.0571998
0.530989
-0.0582562
0.503171
-0.0589971
0.476547
-0.0594726
0.451098
-0.0596547
0.426762
-0.0593539
0.403489
-0.0582739
0.381128
-0.0569964
0.360112
-0.0565021
0.340656
-0.0565825
0.322112
-0.056233
0.303879
-0.0551907
0.286481
-0.0540966
0.270436
-0.0531997
0.255355
-0.0522284
0.240941
-0.051074
0.22736
-0.0498802
0.214636
-0.0487233
0.202643
-0.0475085
0.191282
-0.0462209
0.180583
-0.044918
0.170501
-0.043586
0.161004
-0.0422092
0.152077
-0.0408021
0.143678
-0.0393579
0.135771
-0.0378488
0.128286
-0.0362948
0.121211
-0.0346798
0.114505
-0.03303
0.10816
-0.0313963
0.102203
-0.0297353
0.0966598
-0.0275469
0.0907211
-0.0248601
0.0841621
-0.0206788
0.0751506
-0.0136543
0.0598724
-0.00415746
0.0342917
0.00481869
-0.0060543
0.980365
-0.0148345
0.982895
-0.0221863
0.936998
-0.0286307
0.890939
-0.0342066
0.847686
-0.0390111
0.806164
-0.0433794
0.766805
-0.0472923
0.72892
-0.0504855
0.692468
-0.0530339
0.657534
-0.0552908
0.624122
-0.0573645
0.592305
-0.0591349
0.561744
-0.060631
0.532485
-0.0618597
0.5044
-0.0627977
0.477485
-0.0634435
0.451744
-0.0638661
0.427184
-0.0642803
0.403904
-0.0650332
0.381881
-0.0656316
0.360711
-0.0651157
0.34014
-0.0636618
0.320658
-0.0623172
0.302534
-0.0614621
0.285626
-0.0605361
0.26951
-0.0592463
0.254065
-0.0578823
0.239577
-0.0566254
0.226103
-0.0553383
0.213349
-0.0539171
0.201222
-0.052469
0.189833
-0.0510224
0.179136
-0.0495245
0.169003
-0.0479992
0.159479
-0.0464703
0.150548
-0.0449122
0.14212
-0.0433045
0.134163
-0.0416676
0.126649
-0.0399861
0.119529
-0.0382761
0.112795
-0.0365342
0.106418
-0.0348686
0.100538
-0.0328262
0.0946174
-0.0303517
0.0882466
-0.0268656
0.080676
-0.0214217
0.0697067
-0.0131584
0.0516091
-0.0026057
0.023739
0.002213
-0.00605045
0.986416
-0.0150853
0.99193
-0.0228096
0.944722
-0.0301598
0.898289
-0.0368223
0.854348
-0.0428977
0.81224
-0.0481865
0.772094
-0.0528006
0.733534
-0.0571628
0.696831
-0.0612006
0.661572
-0.0646294
0.62755
-0.0674076
0.595083
-0.0696902
0.564027
-0.0714463
0.534241
-0.0727093
0.505663
-0.0735587
0.478334
-0.0740622
0.452247
-0.0741998
0.427322
-0.0737812
0.403485
-0.0725208
0.38062
-0.0709182
0.359108
-0.0700065
0.339228
-0.0697288
0.320381
-0.0691318
0.301937
-0.0678114
0.284305
-0.0662703
0.267969
-0.0649246
0.25272
-0.063597
0.23825
-0.0620675
0.224574
-0.0604406
0.211722
-0.0588686
0.19965
-0.0572847
0.18825
-0.0556399
0.177491
-0.0539996
0.167362
-0.052365
0.157844
-0.0506915
0.148874
-0.0489904
0.140419
-0.0472841
0.132457
-0.0455432
0.124908
-0.0437749
0.117761
-0.0419678
0.110988
-0.0402912
0.104742
-0.0384251
0.0986715
-0.0361176
0.0923099
-0.0331891
0.0853181
-0.0288674
0.0763544
-0.0217896
0.0626289
-0.0113658
0.0411852
-0.001497
0.0138702
0.000715999
-0.00856114
0.994977
-0.0186508
1.00202
-0.0272948
0.953366
-0.0349964
0.905991
-0.0415756
0.860927
-0.0473933
0.818058
-0.0526363
0.777337
-0.0573656
0.738264
-0.0611905
0.700656
-0.064356
0.664737
-0.0672532
0.630448
-0.0698275
0.597658
-0.072011
0.56621
-0.0738548
0.536085
-0.0753678
0.507176
-0.0765232
0.47949
-0.0772902
0.453014
-0.0777176
0.427749
-0.0780534
0.403821
-0.0786463
0.381213
-0.0791499
0.359612
-0.0785589
0.338637
-0.0768413
0.318663
-0.0750281
0.300124
-0.0736435
0.282921
-0.0723632
0.266689
-0.0707328
0.251089
-0.068922
0.236439
-0.0672183
0.22287
-0.0655667
0.210071
-0.06381
0.197893
-0.0620068
0.186446
-0.0602305
0.175715
-0.0584432
0.165575
-0.0566396
0.156041
-0.0548604
0.147095
-0.0530974
0.138656
-0.0513034
0.130663
-0.0494907
0.123096
-0.0476582
0.115928
-0.0459529
0.109282
-0.0441873
0.102976
-0.0420121
0.0964963
-0.0394376
0.0897353
-0.0359312
0.0818117
-0.0302663
0.0706895
-0.0211066
0.0534692
-0.00821715
0.0282958
-0.0010183
0.00667136
-0.000302303
-0.00790193
1.00288
-0.0182475
1.01236
-0.0270057
0.962124
-0.0352977
0.914283
-0.0427707
0.8684
-0.0498155
0.825102
-0.0560679
0.783589
-0.0616001
0.743796
-0.0669029
0.705958
-0.0718085
0.669643
-0.0759553
0.634594
-0.0794428
0.601145
-0.0823311
0.569098
-0.0845771
0.538331
-0.0861917
0.508791
-0.0872635
0.480562
-0.0878798
0.453631
-0.0880586
0.427928
-0.0876312
0.403394
-0.0862641
0.379846
-0.0843292
0.357677
-0.0829223
0.33723
-0.0822293
0.31797
-0.0813526
0.299247
-0.0798213
0.281389
-0.07785
0.264717
-0.0760086
0.249248
-0.0743087
0.234739
-0.0724628
0.221024
-0.0704599
0.208068
-0.0684993
0.195932
-0.066601
0.184548
-0.064687
0.173801
-0.0627908
0.163679
-0.0609465
0.154196
-0.0591064
0.145255
-0.0572443
0.136794
-0.0553959
0.128814
-0.0535571
0.121257
-0.0518275
0.114199
-0.0501159
0.107571
-0.0480693
0.100929
-0.0457715
0.0941986
-0.0427968
0.0867606
-0.0379726
0.0769874
-0.0296917
0.0624086
-0.0171423
0.0409198
-0.00462385
0.0157773
-0.000518036
0.00256554
-0.000820339
-0.00874655
1.01163
-0.0201171
1.02374
-0.0298486
0.971856
-0.0386396
0.923074
-0.0461882
0.875949
-0.0528247
0.831739
-0.0589801
0.789745
-0.0646687
0.749485
-0.0694096
0.710699
-0.0734585
0.673692
-0.0771976
0.638333
-0.080518
0.604466
-0.0833474
0.571928
-0.0857585
0.540742
-0.0877662
0.510798
-0.0893076
0.482103
-0.0903533
0.454676
-0.0909264
0.428501
-0.0912227
0.40369
-0.0916706
0.380294
-0.0921067
0.358113
-0.0914725
0.336596
-0.0896083
0.316106
-0.0873552
0.296994
-0.0853861
0.27942
-0.0836777
0.263009
-0.0817558
0.247326
-0.0795632
0.232546
-0.0773948
0.218855
-0.0753565
0.20603
-0.0733136
0.193889
-0.0712278
0.182462
-0.0691827
0.171756
-0.0672059
0.161702
-0.0652515
0.152242
-0.0633183
0.143322
-0.061438
0.134913
-0.0595816
0.126958
-0.0578074
0.119483
-0.0561094
0.112501
-0.0541694
0.105631
-0.0520222
0.0987823
-0.0493268
0.0915032
-0.0450969
0.0825307
-0.0378525
0.069743
-0.0263636
0.0509196
-0.0111873
0.0257436
-0.00243619
0.00702616
-0.000128091
0.000257446
-0.00094843
-0.0086865
1.02031
-0.0187389
1.03379
-0.0278635
0.98098
-0.0368305
0.932041
-0.0451891
0.884308
-0.05328
0.83983
-0.0605972
0.797062
-0.0672073
0.756095
-0.0736373
0.717129
-0.0796444
0.679699
-0.0848481
0.643537
-0.0893283
0.608946
-0.0931445
0.575744
-0.0961763
0.543774
-0.0984179
0.51304
-0.0999646
0.48365
-0.100907
0.455619
-0.10128
0.428874
-0.100982
0.403391
-0.0996578
0.37897
-0.097497
0.355952
-0.0956225
0.334722
-0.0944032
0.314886
-0.093214
0.295805
-0.0915207
0.277727
-0.0892407
0.260729
-0.0868656
0.244951
-0.0847009
0.230382
-0.0825441
0.216699
-0.0802395
0.203725
-0.0779272
0.191577
-0.0757343
0.180269
-0.0736253
0.169647
-0.0715475
0.159624
-0.069536
0.15023
-0.0676049
0.141391
-0.065706
0.133015
-0.0638711
0.125123
-0.0621602
0.117772
-0.060303
0.110644
-0.0582625
0.10359
-0.0557744
0.0962942
-0.0520097
0.0877385
-0.0455274
0.0760484
-0.0346874
0.058903
-0.0187776
0.0350099
-0.00565005
0.012616
-0.00104053
0.00241664
5.4419e-05
-0.000837498
-0.000894011
-0.00763425
1.02795
-0.0190458
1.0452
-0.029085
0.99102
-0.0383329
0.941289
-0.0465573
0.892532
-0.0540988
0.847371
-0.0612315
0.804195
-0.0680563
0.762919
-0.0739972
0.72307
-0.0793013
0.685003
-0.0843005
0.648536
-0.0887736
0.613419
-0.092636
0.579606
-0.095997
0.547135
-0.0988306
0.515873
-0.101064
0.485883
-0.10266
0.457215
-0.103623
0.429838
-0.104088
0.403856
-0.104481
0.379363
-0.10487
0.35634
-0.104253
0.334105
-0.102376
0.313009
-0.0997998
0.293229
-0.0972249
0.275152
-0.0949071
0.258411
-0.0926556
0.242699
-0.0901564
0.227882
-0.087525
0.214067
-0.0850237
0.201224
-0.0826611
0.189214
-0.0803351
0.177943
-0.0780409
0.167353
-0.0758868
0.15747
-0.073858
0.148202
-0.0718754
0.139408
-0.0699575
0.131097
-0.0682066
0.123372
-0.0663902
0.115955
-0.0644094
0.108663
-0.0620517
0.101233
-0.0586248
0.0928673
-0.0527279
0.0818415
-0.042454
0.0657745
-0.0264085
0.0428575
-0.0102755
0.0188769
-0.0026849
0.00502541
-0.000294036
2.57691e-05
0.000122398
-0.00125393
-0.000771612
-0.00670619
1.03465
-0.0153009
1.05379
-0.0245146
1.00023
-0.0339283
0.950702
-0.042806
0.90141
-0.0518882
0.856453
-0.0603698
0.812676
-0.0682817
0.770831
-0.0761521
0.730941
-0.0835669
0.692418
-0.090192
0.655161
-0.0961742
0.619401
-0.101441
0.584873
-0.105759
0.551452
-0.109135
0.51925
-0.111621
0.488369
-0.113278
0.458873
-0.11417
0.43073
-0.114253
0.403938
-0.113239
0.378349
-0.111029
0.354131
-0.108766
0.331842
-0.106976
0.31122
-0.105293
0.291546
-0.103319
0.273178
-0.100843
0.255935
-0.0979709
0.239827
-0.0951801
0.225092
-0.0925626
0.21145
-0.0899481
0.198609
-0.0873245
0.186591
-0.0848093
0.175428
-0.0824862
0.16503
-0.0802659
0.15525
-0.0781186
0.146054
-0.0760742
0.137364
-0.0742474
0.12927
-0.0724285
0.121553
-0.0704581
0.113985
-0.0681592
0.106364
-0.0649404
0.0980137
-0.0595277
0.0874547
-0.04974
0.0720539
-0.0335369
0.0495714
-0.0153836
0.0247042
-0.00464164
0.0081349
-0.000891459
0.00127523
0.000150371
-0.00101606
0.000176795
-0.00128036
-0.000594818
-0.00490262
1.03955
-0.0146199
1.06351
-0.0239104
1.00952
-0.0328742
0.959666
-0.0414913
0.910027
-0.0498609
0.864823
-0.0580888
0.820904
-0.0662389
0.778981
-0.073684
0.738386
-0.0806978
0.699432
-0.0874452
0.661909
-0.0935261
0.625482
-0.0989758
0.590323
-0.103861
0.556337
-0.108069
0.523458
-0.111519
0.491819
-0.114123
0.461477
-0.115892
0.4325
-0.116891
0.404937
-0.117487
0.378945
-0.11798
0.354624
-0.117546
0.331408
-0.115599
0.309272
-0.11291
0.288857
-0.109774
0.270042
-0.106647
0.252809
-0.103751
0.23693
-0.100857
0.222198
-0.0977885
0.208381
-0.0947553
0.195576
-0.0919472
0.183783
-0.0893336
0.172814
-0.0868037
0.1625
-0.0844406
0.152887
-0.0822421
0.143856
-0.0802791
0.135401
-0.0783824
0.127373
-0.0763757
0.119547
-0.074116
0.111725
-0.0710459
0.103294
-0.0659921
0.0929599
-0.0566101
0.0780726
-0.0400158
0.0554596
-0.0205037
0.0300593
-0.00728903
0.0114896
-0.00205271
0.00289858
-0.000328956
-0.000448522
0.000102251
-0.00144727
0.000102731
-0.00128084
-0.000492087
-0.00109475
1.04065
-0.00872159
1.07114
-0.0170129
1.01782
-0.0259082
0.968561
-0.0350102
0.919129
-0.0447037
0.874516
-0.0542824
0.830483
-0.0636253
0.788324
-0.0729981
0.747759
-0.0821041
0.708538
-0.0906462
0.670451
-0.0987621
0.633598
-0.106082
0.597642
-0.11238
0.562635
-0.117607
0.528686
-0.121732
0.495943
-0.124758
0.464503
-0.126734
0.434476
-0.12763
0.405833
-0.127278
0.378594
-0.12532
0.352665
-0.122684
0.328772
-0.12045
0.307038
-0.118182
0.286589
-0.115663
0.267523
-0.112888
0.250034
-0.109657
0.233699
-0.106148
0.218688
-0.102777
0.20501
-0.0995947
0.192394
-0.0965692
0.180757
-0.0936986
0.169944
-0.0910264
0.159827
-0.088572
0.150432
-0.086357
0.141641
-0.0842865
0.13333
-0.0821808
0.125267
-0.0798929
0.117259
-0.0768584
0.108691
-0.0719587
0.0983941
-0.062846
0.0838473
-0.0458427
0.0610694
-0.0253519
0.0349687
-0.0104747
0.0151821
-0.00387209
0.00488693
-0.0014658
0.000492295
-0.000650938
-0.00126339
-0.000310803
-0.0017874
-0.000101805
-0.00148983
-0.000593891
0.000342366
1.04031
-0.00655059
1.07803
-0.014163
1.02543
-0.0223207
0.976719
-0.0308646
0.927673
-0.0395757
0.883228
-0.0485738
0.839481
-0.0581177
0.797868
-0.0673519
0.756993
-0.0763619
0.717548
-0.085137
0.679226
-0.0933487
0.64181
-0.101049
0.605343
-0.108177
0.569762
-0.114498
0.535007
-0.119881
0.501327
-0.124176
0.468798
-0.127366
0.437665
-0.129453
0.40792
-0.130664
0.379804
-0.131509
0.353511
-0.131632
0.328895
-0.129927
0.305333
-0.126978
0.28364
-0.123455
0.264001
-0.119526
0.246105
-0.115577
0.229751
-0.11187
0.214981
-0.108201
0.201341
-0.104551
0.188744
-0.10113
0.177336
-0.0979967
0.166811
-0.0951536
0.156984
-0.0926014
0.14788
-0.0902672
0.139306
-0.087964
0.131027
-0.0855154
0.122819
-0.0823641
0.114107
-0.0774412
0.103768
-0.0684649
0.0894178
-0.0511643
0.0665466
-0.0295755
0.0394805
-0.0134314
0.0188246
-0.00536121
0.00711192
-0.00224544
0.00177116
-0.00112662
-0.000626526
-0.000677709
-0.0017123
-0.000440085
-0.00202503
-0.000210432
-0.00171949
-0.000804323
0.00473491
1.03557
0.000407365
1.08236
-0.00555044
1.03139
-0.0131483
0.984317
-0.0216476
0.936172
-0.0315148
0.893095
-0.0417686
0.849735
-0.0521136
0.808213
-0.0630897
0.767969
-0.0741394
0.728597
-0.0849489
0.690036
-0.0954857
0.652346
-0.105425
0.615282
-0.114447
0.578785
-0.122381
0.542941
-0.129044
0.507989
-0.134388
0.474143
-0.138294
0.441571
-0.140762
0.410389
-0.141666
0.380707
-0.14066
0.352505
-0.137998
0.326233
-0.135207
0.302542
-0.132449
0.280882
-0.129303
0.260855
-0.125754
0.242555
-0.122008
0.226005
-0.117828
0.210801
-0.113509
0.197022
-0.109563
0.184797
-0.105818
0.173592
-0.102312
0.163305
-0.0991626
0.153835
-0.0963714
0.145089
-0.0937434
0.136679
-0.0910116
0.128295
-0.0876506
0.119458
-0.0825798
0.109037
-0.0735251
0.0947132
-0.055898
0.0717907
-0.0331636
0.0438123
-0.0154685
0.0217855
-0.00564481
0.00900093
-0.00123674
0.00270385
0.000543192
-8.77225e-06
0.00106065
-0.00114399
0.000883944
-0.00153559
0.000433181
-0.00157427
5.84211e-05
-0.00134472
-0.000745902
0.00572805
1.02984
0.00318556
1.0849
-0.00164852
1.03622
-0.00813012
0.990799
-0.0155359
0.943578
-0.023871
0.90143
-0.033141
0.859005
-0.0435677
0.81864
-0.0542006
0.778602
-0.0651643
0.739561
-0.0762994
0.701171
-0.0871232
0.66317
-0.0975896
0.625748
-0.107477
0.588673
-0.116722
0.552185
-0.124972
0.516239
-0.131878
0.481049
-0.137373
0.447066
-0.141393
0.414409
-0.144029
0.383343
-0.145761
0.354237
-0.146729
0.327201
-0.145747
0.30156
-0.142804
0.277939
-0.138818
0.25687
-0.134183
0.23792
-0.129125
0.220947
-0.124046
0.205722
-0.119406
0.192383
-0.115035
0.180425
-0.110828
0.169386
-0.106903
0.15938
-0.103386
0.150318
-0.100158
0.14186
-0.0969707
0.133492
-0.0932562
0.124581
-0.0878599
0.114062
-0.0783996
0.0995763
-0.0601972
0.0765107
-0.036028
0.0476215
-0.0161561
0.0239404
-0.00414098
0.0097703
0.00215859
0.00270136
0.00487934
-1.6896e-05
0.00570402
-0.000833453
0.00535248
-0.000792454
0.0041522
-0.000335309
0.00245274
0.000125193
0.000829824
0.000278191
8.39216e-05
0.0125536
1.01729
0.0112772
1.08618
0.00845339
1.03904
0.0025782
0.996674
-0.00492389
0.95108
-0.0139002
0.910406
-0.0238421
0.868947
-0.0346879
0.829486
-0.0466275
0.790541
-0.0591221
0.752056
-0.0720305
0.714079
-0.0852444
0.676384
-0.0981527
0.638657
-0.110414
0.600934
-0.121709
0.56348
-0.131906
0.526436
-0.140634
0.489777
-0.147635
0.454067
-0.152754
0.419528
-0.155916
0.386505
-0.156757
0.355078
-0.154869
0.325313
-0.151788
0.298479
-0.148765
0.274915
-0.145041
0.253146
-0.140556
0.233435
-0.135647
0.216038
-0.130649
0.200724
-0.125538
0.187272
-0.120293
0.17518
-0.115405
0.164497
-0.110964
0.154938
-0.106885
0.146239
-0.102952
0.137928
-0.0986078
0.129147
-0.0926225
0.118595
-0.0825047
0.103944
-0.0635539
0.0806255
-0.0378374
0.0507942
-0.0154598
0.025244
-0.000940992
0.00942158
0.00709966
0.00172965
0.0108794
-0.00107841
0.0120057
-0.00114312
0.0114914
-0.000319201
0.00979186
0.000907089
0.00733387
0.00212268
0.00446308
0.00299598
0.00166141
0.00307987
0.00174533
0.0101043
1.00719
0.0118462
1.08444
0.0106679
1.04022
0.00735028
0.999991
0.00227595
0.956154
-0.00472154
0.917404
-0.0134402
0.877665
-0.0236062
0.839652
-0.034631
0.801566
-0.0468455
0.76427
-0.0597459
0.726979
-0.0729951
0.689633
-0.0864977
0.652159
-0.0998094
0.614246
-0.112472
0.576143
-0.124221
0.538185
-0.134785
0.500341
-0.143634
0.462916
-0.150737
0.42663
-0.15586
0.391629
-0.159268
0.358485
-0.161632
0.327677
-0.162404
0.299252
-0.160162
0.272673
-0.155669
0.248653
-0.150259
0.228025
-0.144266
0.210044
-0.137925
0.194383
-0.131481
0.180828
-0.125479
0.169179
-0.120013
0.159031
-0.114929
0.149854
-0.109898
0.141209
-0.104446
0.132475
-0.0974015
0.122103
-0.0863108
0.107505
-0.0661299
0.0837629
-0.0387422
0.0532378
-0.0141471
0.0261991
0.00210257
0.00899429
0.0109682
0.000555924
0.0149319
-0.00223399
0.0160585
-0.002205
0.0158034
-0.00088808
0.0143044
0.00117987
0.0118364
0.00337503
0.00877856
0.00518053
0.00538817
0.00638637
0.00210296
0.00636507
0.00384829
0.0192518
0.987934
0.0213838
1.0823
0.0212452
1.04036
0.0175749
1.00366
0.0123877
0.961341
0.00555052
0.924241
-0.00282532
0.886041
-0.0131236
0.84995
-0.0249415
0.813384
-0.0378494
0.777178
-0.0519892
0.741119
-0.0670669
0.704711
-0.0825197
0.667612
-0.0981548
0.629881
-0.113393
0.59138
-0.127575
0.552368
-0.140558
0.513324
-0.151835
0.474193
-0.160954
0.43575
-0.167608
0.398282
-0.17161
0.362487
-0.172367
0.328434
-0.170053
0.296938
-0.166672
0.269292
-0.162562
0.244542
-0.157311
0.222775
-0.151054
0.203787
-0.144335
0.187664
-0.137512
0.174005
-0.131026
0.162693
-0.124935
0.15294
-0.118486
0.143406
-0.111495
0.134218
-0.102602
0.123582
-0.0896725
0.109173
-0.0674151
0.0852473
-0.0385226
0.0548704
-0.0129537
0.0276689
0.00315657
0.0100889
0.0108906
0.00126028
0.0137832
-0.00233673
0.0143447
-0.00279549
0.0141341
-0.0019944
0.0133806
-0.000134577
0.0119276
0.00263291
0.00993982
0.00536281
0.00731562
0.00780473
0.00431701
0.00938498
0.00155572
0.00912637
0.00540401
0.0129283
0.975006
0.0188177
1.07641
0.0206944
1.03848
0.0206856
1.00367
0.0186545
0.963372
0.0140117
0.928884
0.00743123
0.892622
-0.000935514
0.858317
-0.0113216
0.82377
-0.0235248
0.789381
-0.0368872
0.754482
-0.0515178
0.719342
-0.0672449
0.683339
-0.0836785
0.646314
-0.100337
0.608039
-0.116252
0.568283
-0.13085
0.527922
-0.144034
0.487377
-0.155355
0.44707
-0.164532
0.407459
-0.171285
0.36924
-0.17602
0.33317
-0.179144
0.300062
-0.178795
0.268942
-0.175015
0.240762
-0.168943
0.216702
-0.161843
0.196687
-0.154456
0.180278
-0.146616
0.166165
-0.138094
0.154171
-0.129194
0.144039
-0.119561
0.133773
-0.108277
0.122933
-0.0921615
0.107467
-0.0667541
0.0837659
-0.0369893
0.0554824
-0.0128685
0.0307496
0.00114673
0.0136537
0.00651018
0.00472542
0.00784535
-7.48836e-05
0.00790972
-0.00240111
0.00820282
-0.00308859
0.00841699
-0.00220857
0.00806646
0.000215948
0.00731798
0.00338139
0.00606713
0.00661366
0.0042956
0.00957626
0.00224068
0.0114399
0.000565129
0.0108019
0.00596914
0.0213395
0.953667
0.0294814
1.06827
0.0298755
1.03809
0.0286614
1.00488
0.0267177
0.965316
0.0231234
0.932478
0.0172075
0.898538
0.0088514
0.866673
-0.00125621
0.833878
-0.0132481
0.801373
-0.027103
0.768336
-0.0424267
0.734665
-0.0594611
0.700374
-0.0777033
0.664557
-0.0967074
0.627043
-0.115424
0.586999
-0.133121
0.545619
-0.149358
0.503614
-0.163414
0.461127
-0.175194
0.419239
-0.184186
0.378232
-0.189269
0.338252
-0.189388
0.300181
-0.186324
0.265879
-0.182302
0.23674
-0.176847
0.211247
-0.169616
0.189457
-0.160579
0.171241
-0.150595
0.15618
-0.139975
0.143552
-0.128377
0.132441
-0.113878
0.119273
-0.0926655
0.101721
-0.0639128
0.0787141
-0.0349044
0.0547575
-0.0139126
0.0344906
-0.00254136
0.0193784
0.00166373
0.00944859
0.00234065
0.00404851
0.0020601
0.000205659
0.00217544
-0.00251644
0.00257214
-0.00348529
0.00322364
-0.00286007
0.00354353