/*--------------------------------*- C++ -*----------------------------------*\
| =========                 |                                                 |
| \\      /  F ield         | OpenFOAM: The Open Source CFD Toolbox           |
|  \\    /   O peration     | Version:  v1912                                 |
|   \\  /    A nd           | Website:  www.openfoam.com                      |
|    \\/     M anipulation  |                                                 |
\*---------------------------------------------------------------------------*/
FoamFile
{
    version     2.0;
    format      ascii;
    class       volVectorField;
    location    "0.28";
    object      U;
}
// * * * * * * * * * * * * * * * * * * * * * * * * * * * * * * * * * * * * * //

dimensions      [0 1 -1 0 0 0 0];


internalField   nonuniform List<vector> 
6600
(
(39.8374 -0.0393473 0)
(40.0963 -0.0609284 1.76881e-20)
(40.1609 0.0192585 1.24139e-18)
(40.1913 0.10962 0)
(40.2236 0.210316 1.53381e-18)
(40.26 0.339364 5.23969e-20)
(40.2946 0.502709 -5.81715e-20)
(40.3106 0.658228 -6.55201e-20)
(40.321 0.822743 1.34217e-18)
(40.3127 1.0002 -1.4384e-19)
(40.2699 1.19912 0)
(40.2202 1.40172 -1.75493e-18)
(40.1659 1.61036 0)
(40.0855 1.82823 -2.05058e-18)
(39.9854 2.0559 -2.83087e-18)
(39.867 2.29289 -1.54633e-18)
(39.7269 2.54129 0)
(39.5759 2.80248 0)
(39.4121 3.07962 2.73238e-18)
(39.2422 3.37191 -2.65596e-18)
(39.0641 3.67106 -3.91106e-19)
(38.8582 3.89608 -1.4608e-18)
(38.6618 4.20156 -2.80508e-18)
(38.3813 4.61421 6.51917e-19)
(38.0359 4.99743 2.34079e-18)
(37.7642 5.35098 0)
(37.4855 5.76011 6.08866e-18)
(37.122 6.21067 0)
(36.7598 6.67089 -3.2715e-18)
(36.4361 7.15646 -2.22031e-18)
(36.0909 7.68299 -2.88945e-19)
(35.7062 8.25628 -2.87768e-18)
(35.3392 8.8552 -1.15283e-18)
(34.97 9.50706 2.53219e-18)
(34.5709 10.2028 3.05787e-19)
(34.1802 10.9505 3.19771e-18)
(33.8111 11.7643 5.8858e-18)
(33.4487 12.6402 6.2695e-18)
(33.1058 13.5902 -4.72853e-18)
(32.7814 14.6167 5.19917e-18)
(32.4836 15.7212 2.89696e-18)
(32.2135 16.9069 0)
(31.9706 18.1722 -1.38153e-18)
(31.7579 19.5356 3.17294e-18)
(31.5673 20.9611 0)
(31.4726 22.5445 9.77695e-19)
(31.3935 24.1202 2.02333e-18)
(31.5752 26.0407 0)
(30.0108 26.7912 0)
(21.4045 20.4221 -5.64723e-20)
(39.741 -0.054742 1.03906e-18)
(40.1671 -0.0634781 -1.09175e-18)
(40.2143 0.0663116 0)
(40.2481 0.190583 -2.06733e-20)
(40.2759 0.325017 1.45136e-18)
(40.3051 0.477865 5.06052e-20)
(40.3397 0.606947 1.90162e-22)
(40.3583 0.770809 -6.27644e-20)
(40.3685 0.94323 0)
(40.3631 1.13094 -2.47282e-18)
(40.3617 1.31894 -8.97318e-20)
(40.3515 1.52591 1.61125e-18)
(40.3179 1.74977 1.72572e-18)
(40.2716 1.98536 1.16923e-18)
(40.2046 2.23559 -6.05181e-21)
(40.1158 2.49686 1.78398e-19)
(39.9992 2.76979 -1.64579e-18)
(39.8609 3.05103 0)
(39.6985 3.3436 0)
(39.4997 3.63354 2.7367e-18)
(39.2732 3.97471 3.97401e-19)
(39.0405 4.41265 -2.20167e-18)
(38.7681 4.76787 -2.04749e-18)
(38.5057 5.04585 -2.3815e-18)
(38.2836 5.42612 -2.03637e-18)
(37.9898 5.8683 -8.1048e-19)
(37.6605 6.28026 -1.00589e-18)
(37.3636 6.71338 -1.08747e-18)
(37.0699 7.20351 3.30185e-18)
(36.7432 7.71983 2.58347e-19)
(36.4 8.25504 -4.33394e-18)
(36.0786 8.82721 4.00972e-18)
(35.7517 9.45288 3.1697e-18)
(35.4032 10.1075 -3.80834e-18)
(35.068 10.8077 3.14896e-19)
(34.7514 11.5601 -3.27038e-18)
(34.4327 12.366 3.17409e-18)
(34.1442 13.2338 -2.16517e-18)
(33.894 14.1701 -1.91171e-18)
(33.6632 15.1698 -2.19926e-18)
(33.4579 16.2341 0)
(33.2913 17.3737 0)
(33.163 18.5723 -1.06398e-18)
(33.0866 19.8569 1.08296e-18)
(33.1131 21.2275 1.77695e-18)
(33.233 22.7369 -1.00944e-18)
(33.3751 24.2399 -7.22416e-19)
(33.6908 25.9513 0)
(32.0225 26.308 -1.22546e-18)
(22.1689 19.4069 2.57973e-19)
(39.6426 -0.0250743 -5.21853e-20)
(40.2807 -0.0803479 1.11422e-18)
(40.3339 0.0639054 1.1373e-18)
(40.3778 0.190032 -3.00737e-22)
(40.4192 0.34104 -1.43048e-19)
(40.4634 0.516609 4.85341e-20)
(40.5007 0.727603 0)
(40.5215 0.914093 0)
(40.5364 1.1182 0)
(40.5294 1.33866 1.32889e-18)
(40.4893 1.57661 -8.56178e-20)
(40.442 1.81741 -1.622e-18)
(40.3879 2.06399 -8.63716e-19)
(40.3078 2.31836 1.95574e-18)
(40.2091 2.58246 1.17197e-18)
(40.0937 2.85478 -1.78198e-19)
(39.9622 3.14315 3.4353e-18)
(39.8188 3.44343 -1.83354e-18)
(39.6634 3.76272 -2.13378e-18)
(39.5081 4.09462 0)
(39.3408 4.39237 -1.44789e-18)
(39.17 4.6657 1.77968e-18)
(38.9959 5.03884 2.07204e-18)
(38.7187 5.49676 2.41153e-18)
(38.3936 5.89229 2.10872e-18)
(38.1677 6.28049 -3.46801e-19)
(37.9232 6.73217 -4.46001e-19)
(37.6008 7.21057 -1.48013e-18)
(37.2865 7.69565 -5.91669e-19)
(37.0206 8.21261 2.17029e-18)
(36.7415 8.76811 7.74021e-19)
(36.4283 9.36349 0)
(36.1464 9.97812 -4.00186e-18)
(35.875 10.6446 1.12336e-18)
(35.5862 11.3485 2.49589e-18)
(35.3156 12.0953 3.93196e-18)
(35.084 12.8952 -1.76509e-18)
(34.8741 13.7461 -1.64445e-18)
(34.6984 14.653 3.5673e-19)
(34.5618 15.6267 0)
(34.4727 16.6591 -1.55559e-18)
(34.441 17.751 0)
(34.4637 18.9009 0)
(34.5411 20.1207 -1.37443e-18)
(34.6679 21.3773 -7.25565e-19)
(34.9109 22.7503 -1.48829e-19)
(35.2256 24.1849 2.19284e-20)
(35.5442 25.5861 0)
(33.6689 25.5038 -1.10014e-18)
(22.5134 18.0414 1.11646e-18)
(39.6018 0.00116086 -9.93952e-19)
(40.413 -0.0333201 7.83789e-21)
(40.4232 0.180457 -1.1696e-18)
(40.4667 0.318691 -1.13872e-18)
(40.4977 0.492229 -1.34349e-18)
(40.5306 0.665219 -6.78899e-19)
(40.5763 0.836612 -5.06756e-20)
(40.5966 1.04522 0)
(40.6022 1.25221 9.79816e-19)
(40.5985 1.47565 1.18237e-18)
(40.5964 1.69574 -8.09574e-20)
(40.5814 1.93839 -9.51987e-20)
(40.5461 2.19544 -7.79556e-19)
(40.5008 2.46493 -1.86821e-19)
(40.4332 2.74931 7.28281e-20)
(40.3425 3.04326 -1.70034e-19)
(40.2225 3.34514 9.99259e-20)
(40.086 3.6571 2.07673e-18)
(39.9315 3.98369 2.90928e-18)
(39.7353 4.30699 0)
(39.5159 4.70028 8.70899e-20)
(39.2832 5.1509 0)
(39.0431 5.5285 0)
(38.8291 5.8366 -5.67481e-19)
(38.6301 6.25665 1.86999e-18)
(38.3573 6.72863 1.91713e-18)
(38.0755 7.16802 -4.20697e-19)
(37.8282 7.62878 2.04182e-18)
(37.589 8.14407 0)
(37.323 8.6822 0)
(37.0541 9.23711 1.35996e-18)
(36.8156 9.8245 0)
(36.5806 10.4621 1.0214e-18)
(36.3346 11.1191 2.0048e-18)
(36.1158 11.8194 -3.48744e-18)
(35.9332 12.5638 -3.78106e-18)
(35.7604 13.3491 3.70916e-18)
(35.6334 14.1822 -1.38797e-18)
(35.5596 15.0674 2.56602e-19)
(35.522 15.9994 3.0115e-19)
(35.5321 16.9719 2.6572e-18)
(35.6016 17.9964 0)
(35.7245 19.0531 0)
(35.9226 20.1615 4.85129e-19)
(36.2514 21.3285 -2.78477e-19)
(36.6814 22.5979 -5.7782e-19)
(37.1443 23.9226 -1.30809e-18)
(37.4293 25.0209 1.44478e-18)
(35.0635 24.4736 2.66685e-18)
(22.4275 16.3823 0)
(39.5473 0.0105108 -3.40189e-21)
(40.5681 -0.037863 8.94054e-19)
(40.6079 0.201713 9.7198e-19)
(40.6617 0.325966 1.1808e-18)
(40.7106 0.5244 0)
(40.7531 0.742792 6.14378e-20)
(40.7848 0.981665 0)
(40.7964 1.20229 -5.29002e-20)
(40.8098 1.44728 -1.82862e-18)
(40.8014 1.70105 -1.18344e-18)
(40.7485 1.97832 7.56289e-20)
(40.6975 2.25294 8.9326e-20)
(40.6342 2.53255 -9.93946e-20)
(40.5466 2.82052 -9.66193e-19)
(40.4417 3.11636 -2.29517e-18)
(40.3255 3.42066 1.53908e-19)
(40.1991 3.74073 -2.91176e-18)
(40.0567 4.06924 2.17596e-19)
(39.909 4.4159 -1.01266e-18)
(39.7784 4.77952 -5.7724e-19)
(39.6225 5.06115 1.71789e-18)
(39.4729 5.37219 0)
(39.3102 5.78261 0)
(39.0443 6.28058 -9.96184e-19)
(38.7519 6.69231 -1.25306e-18)
(38.5694 7.09585 1.66465e-18)
(38.3659 7.57505 -3.91016e-19)
(38.0983 8.07589 0)
(37.8396 8.57625 5.16671e-19)
(37.6399 9.107 -5.75509e-19)
(37.4391 9.67471 -1.38221e-18)
(37.2126 10.2771 -2.05796e-18)
(37.025 10.8902 8.02276e-19)
(36.8649 11.5506 -8.59587e-19)
(36.7013 12.2376 9.56507e-19)
(36.5627 12.9596 0)
(36.4805 13.7228 -1.17722e-18)
(36.4351 14.526 -1.88915e-18)
(36.4357 15.363 1.10534e-18)
(36.4895 16.2438 1.19317e-18)
(36.611 17.1647 -1.08773e-18)
(36.7986 18.115 0)
(37.0548 19.1007 0)
(37.3781 20.1184 -3.32926e-19)
(37.759 21.1388 6.55555e-19)
(38.2446 22.2297 1.04828e-19)
(38.7704 23.4406 1.00065e-18)
(38.8458 24.1948 -2.18427e-18)
(35.8857 23.1222 3.39494e-19)
(21.7651 14.4315 -4.19548e-18)
(39.5362 0.0535388 7.83744e-19)
(40.7421 0.0338244 -9.54306e-20)
(40.7469 0.344895 -9.91113e-19)
(40.7928 0.485302 4.75229e-19)
(40.8177 0.702911 0)
(40.8528 0.912233 6.64941e-19)
(40.8985 1.11887 -2.13e-20)
(40.9167 1.36741 -7.17702e-19)
(40.9093 1.60304 9.06948e-19)
(40.9012 1.86234 0)
(40.8955 2.10972 7.1261e-20)
(40.8757 2.38295 5.28383e-19)
(40.8402 2.66893 -7.9701e-19)
(40.7954 2.96725 1.05648e-19)
(40.7288 3.27986 1.17255e-18)
(40.6346 3.59829 -1.42283e-19)
(40.5172 3.92922 9.45169e-19)
(40.384 4.26779 -1.92925e-19)
(40.2271 4.61472 2.34694e-19)
(40.0327 4.9782 7.48139e-19)
(39.8342 5.43658 1.01433e-18)
(39.6154 5.9 -6.74549e-21)
(39.3992 6.27029 4.15879e-19)
(39.2266 6.59348 1.67259e-18)
(39.0583 7.04438 0)
(38.8223 7.54069 -1.32947e-18)
(38.5868 7.98867 3.61605e-19)
(38.3879 8.45954 5.34873e-21)
(38.2155 8.98414 -6.88239e-20)
(38.0201 9.52747 5.10956e-19)
(37.8298 10.0798 -1.03448e-18)
(37.6786 10.6591 1.35903e-18)
(37.545 11.2834 0)
(37.4049 11.9166 0)
(37.3036 12.5859 0)
(37.2578 13.287 0)
(37.2309 14.0162 -1.00088e-18)
(37.26 14.7754 1.89289e-18)
(37.3542 15.5725 0)
(37.4962 16.3911 4.76319e-20)
(37.6943 17.2249 -2.02273e-19)
(37.9528 18.0879 -3.20789e-19)
(38.2661 18.9523 1.55243e-19)
(38.6613 19.8313 0)
(39.1912 20.7416 6.22949e-19)
(39.8045 21.731 -2.54836e-18)
(40.3406 22.7652 1.74474e-18)
(40.2086 23.1772 1.71085e-18)
(36.2872 21.5574 6.54083e-18)
(20.483 12.2356 -4.97262e-18)
(39.5624 0.0741245 -7.73355e-19)
(40.945 0.030787 -1.50392e-18)
(40.9897 0.373645 1.2801e-20)
(41.0493 0.488985 -4.77109e-19)
(41.1049 0.764535 4.3489e-19)
(41.1442 1.01353 -1.68639e-20)
(41.1659 1.28812 5.71477e-19)
(41.1705 1.54199 7.20574e-19)
(41.1858 1.8295 7.26879e-19)
(41.1771 2.12078 -2.68541e-20)
(41.1165 2.44123 -4.59994e-19)
(41.0652 2.7509 -8.01373e-20)
(40.9959 3.06668 7.0587e-19)
(40.9047 3.38945 0)
(40.7994 3.71852 0)
(40.6856 4.0533 6.67584e-20)
(40.5644 4.40063 1.13446e-18)
(40.4288 4.7552 0)
(40.2993 5.12138 1.05366e-19)
(40.1902 5.49816 -1.13564e-18)
(40.0414 5.76684 -1.04066e-18)
(39.9161 6.10321 4.37566e-19)
(39.7701 6.5476 0)
(39.522 7.06298 -9.10551e-19)
(39.2657 7.47896 -2.4627e-19)
(39.1208 7.8874 2.74725e-19)
(38.9664 8.3789 0)
(38.7606 8.88373 0)
(38.5606 9.38005 -5.39672e-19)
(38.4266 9.90029 -3.38363e-19)
(38.3067 10.4554 1.51491e-18)
(38.1699 11.0375 -5.19165e-19)
(38.072 11.6199 -5.22452e-19)
(38.0182 12.2409 1.11765e-18)
(37.9764 12.8769 -1.32234e-18)
(37.96 13.5367 -1.30292e-19)
(38.0114 14.2227 6.50795e-19)
(38.1119 14.9344 -5.8774e-19)
(38.2618 15.6577 1.16296e-19)
(38.4669 16.3989 5.7455e-20)
(38.7409 17.1615 -2.60892e-19)
(39.0776 17.9252 1.85231e-19)
(39.4882 18.7025 7.67047e-19)
(39.9646 19.4807 -8.52072e-19)
(40.4866 20.2398 6.35478e-19)
(41.0997 21.1076 0)
(41.4816 21.8288 1.28922e-18)
(40.9108 21.9358 2.36958e-18)
(35.8577 19.6718 -4.61551e-18)
(18.4239 9.8153 -1.49563e-18)
(39.6324 0.0991246 5.81171e-19)
(41.1555 0.0817403 6.97361e-19)
(41.191 0.529279 5.60004e-21)
(41.2477 0.662819 -3.37652e-19)
(41.2515 0.95709 -8.21444e-19)
(41.2855 1.19777 4.21277e-19)
(41.3323 1.44382 -1.02304e-18)
(41.3482 1.73035 2.54246e-19)
(41.337 2.00467 -7.05632e-19)
(41.3253 2.29616 -3.53265e-19)
(41.3221 2.57122 8.94774e-19)
(41.3031 2.87645 -5.94451e-19)
(41.2716 3.19202 -5.12107e-19)
(41.2344 3.51812 -1.82944e-21)
(41.1742 3.85856 -3.00026e-19)
(41.0853 4.20583 4.05281e-19)
(40.9748 4.56194 -5.67986e-19)
(40.8493 4.9252 0)
(40.6926 5.2922 0)
(40.5013 5.68575 0)
(40.3336 6.19801 -1.21949e-19)
(40.1362 6.67779 -4.64638e-19)
(39.9468 7.03686 -4.10706e-19)
(39.8094 7.36343 -1.79517e-19)
(39.6688 7.82236 0)
(39.4789 8.32253 0)
(39.2887 8.76676 4.60775e-19)
(39.1355 9.22745 -2.8734e-19)
(39.0308 9.73816 -8.10551e-20)
(38.9114 10.2657 9.6732e-20)
(38.7929 10.7907 2.0029e-20)
(38.7223 11.3318 -2.34321e-19)
(38.6847 11.9114 1.84165e-19)
(38.6414 12.4893 -4.96822e-19)
(38.6385 13.0917 4.67972e-19)
(38.708 13.71 3.09277e-19)
(38.8012 14.3442 1.37781e-19)
(38.9495 14.9868 -4.35188e-20)
(39.1618 15.6518 -1.5e-19)
(39.4246 16.3197 1.3545e-19)
(39.7398 16.9799 -2.44717e-19)
(40.1087 17.6494 7.51762e-19)
(40.5204 18.2936 -8.36176e-19)
(41.0079 18.9259 0)
(41.6265 19.5797 0)
(42.3049 20.3664 0)
(42.5078 20.7349 0)
(41.3854 20.5519 0)
(34.8314 17.5997 -2.8097e-18)
(15.6262 7.30013 4.60267e-18)
(39.7257 0.135095 -5.85642e-19)
(41.4307 0.0717109 0)
(41.4966 0.551506 0)
(41.5628 0.677127 3.43126e-19)
(41.613 1.02605 3.65576e-19)
(41.6483 1.30457 -4.19424e-19)
(41.6681 1.61623 4.66476e-19)
(41.679 1.91947 -2.55055e-19)
(41.6984 2.24539 2.16412e-19)
(41.6907 2.57698 3.49628e-19)
(41.6336 2.93945 -3.80327e-19)
(41.5858 3.28609 3.09953e-19)
(41.5178 3.63834 7.07809e-19)
(41.4296 3.99594 0)
(41.3295 4.35701 3.48823e-19)
(41.222 4.72124 -4.54011e-19)
(41.1093 5.09271 -2.47519e-21)
(40.9841 5.47058 -4.33324e-19)
(40.8754 5.85407 5.73179e-19)
(40.7793 6.22861 0)
(40.6426 6.49155 0)
(40.5391 6.83467 3.86871e-19)
(40.4179 7.30673 1.3464e-19)
(40.1982 7.82987 -4.98904e-19)
(39.9792 8.24065 -1.63639e-19)
(39.8638 8.63731 4.91895e-19)
(39.755 9.11188 -8.0279e-19)
(39.6152 9.60249 5.77736e-19)
(39.4739 10.0766 -3.54508e-19)
(39.3934 10.56 2.45915e-19)
(39.3485 11.0742 -1.32226e-19)
(39.2929 11.6102 5.25144e-19)
(39.2676 12.1326 -2.39492e-20)
(39.2946 12.6819 2.95375e-19)
(39.3534 13.2362 0)
(39.4299 13.8027 -4.67313e-21)
(39.5728 14.3756 7.64804e-20)
(39.7701 14.9636 1.3435e-19)
(40.0113 15.5438 4.54206e-19)
(40.2993 16.1184 -3.50747e-19)
(40.6458 16.7001 -2.22681e-19)
(41.0438 17.2587 -1.02314e-18)
(41.519 17.816 2.53778e-18)
(42.0565 18.3612 3.13054e-19)
(42.6399 18.9119 3.66478e-19)
(43.122 19.4112 -1.16636e-18)
(43.0286 19.5729 0)
(40.9685 18.9079 2.51935e-18)
(32.6333 15.161 -1.31474e-18)
(11.9132 4.66767 0)
(39.8582 0.156882 1.43401e-21)
(41.726 0.141991 -1.36048e-22)
(41.7669 0.708955 -1.63582e-19)
(41.8208 0.851619 0)
(41.8136 1.21946 -3.55564e-21)
(41.8513 1.49361 -9.09475e-20)
(41.9017 1.7831 0)
(41.9182 2.10927 1.18151e-19)
(41.9033 2.42014 -2.28378e-19)
(41.8962 2.74455 1.26147e-20)
(41.8991 3.04834 1.82257e-19)
(41.8851 3.38546 -2.10044e-19)
(41.8624 3.72947 -2.15643e-19)
(41.8354 4.08322 0)
(41.78 4.44961 0)
(41.6993 4.82279 0)
(41.5965 5.20275 -2.09345e-19)
(41.4803 5.58766 4.35109e-19)
(41.3396 5.97789 -7.29731e-19)
(41.1669 6.40645 6.33375e-20)
(41.0192 6.94186 -1.43343e-19)
(40.8379 7.42384 -3.08261e-19)
(40.6666 7.76668 7.42124e-19)
(40.5584 8.09054 6.68507e-19)
(40.4533 8.5362 0)
(40.3129 9.02294 -3.74123e-19)
(40.1674 9.45204 6.15877e-19)
(40.0468 9.87852 -4.34584e-19)
(39.9978 10.349 1.45817e-19)
(39.9507 10.8393 -7.69683e-20)
(39.8887 11.3165 5.7387e-20)
(39.8772 11.7927 -1.03173e-19)
(39.9126 12.3009 1.73252e-19)
(39.9465 12.7986 5.85089e-20)
(40.0065 13.3071 6.34346e-20)
(40.1483 13.8164 -2.0144e-19)
(40.3177 14.3356 3.90933e-19)
(40.5307 14.8428 -3.40243e-19)
(40.7951 15.3542 3.54377e-20)
(41.1066 15.8589 0)
(41.4631 16.3379 7.47062e-19)
(41.869 16.813 6.30931e-19)
(42.2979 17.2442 1.24517e-19)
(42.7921 17.6582 -1.97659e-18)
(43.4517 18.1575 -1.20966e-19)
(43.6984 18.346 -1.49728e-18)
(43.2727 18.2642 0)
(40.0775 17.0309 2.64843e-18)
(29.6679 12.4523 -4.45476e-18)
(7.82488 2.16746 0)
(40.0226 0.216477 0)
(42.0874 0.152089 0)
(42.1511 0.711862 1.30301e-19)
(42.2151 0.85923 -3.63761e-21)
(42.2632 1.28027 3.23638e-20)
(42.3031 1.59467 9.50944e-20)
(42.3211 1.94636 0)
(42.3326 2.28437 -1.18421e-19)
(42.3589 2.64987 4.39988e-20)
(42.3574 3.0234 0)
(42.3085 3.42702 -2.15444e-19)
(42.2683 3.80911 -6.68615e-20)
(42.2045 4.19768 -1.18021e-20)
(42.1204 4.58939 1.31551e-20)
(42.0292 4.97822 0)
(41.9306 5.36875 0)
(41.8254 5.76177 2.03048e-19)
(41.7093 6.15763 5.83167e-20)
(41.606 6.55256 8.72432e-20)
(41.5161 6.91719 1.93468e-20)
(41.3994 7.18404 -4.38129e-20)
(41.3122 7.51417 2.47932e-20)
(41.2213 7.99145 -2.99528e-19)
(41.0278 8.50137 -1.36942e-19)
(40.8392 8.90632 4.60586e-20)
(40.7427 9.27733 7.7445e-20)
(40.6649 9.70944 -1.75304e-19)
(40.5876 10.1688 -6.06842e-20)
(40.4993 10.6062 0)
(40.4508 11.0313 0)
(40.4569 11.4789 0)
(40.4643 11.9495 3.94201e-20)
(40.4871 12.3933 -6.23131e-20)
(40.5533 12.8515 -1.17002e-20)
(40.6765 13.3082 1.91574e-19)
(40.8086 13.7694 2.71062e-19)
(40.9907 14.2158 -5.21499e-20)
(41.2248 14.67 4.425e-19)
(41.4972 15.107 -2.7281e-19)
(41.8055 15.5194 -4.35602e-19)
(42.1576 15.927 -5.68135e-19)
(42.5384 16.2909 6.33474e-19)
(43.002 16.6508 0)
(43.5827 17.0528 1.12958e-18)
(43.9643 17.2786 -6.46919e-19)
(43.9604 17.2936 8.70943e-19)
(42.7681 16.8238 0)
(37.9001 14.7985 -1.28062e-18)
(25.4114 9.34048 7.5035e-19)
(4.85332 0.611194 0)
(40.299 0.272777 -3.68366e-21)
(42.4656 0.23517 0)
(42.497 0.87879 1.53826e-20)
(42.5411 1.03151 2.71516e-20)
(42.5326 1.462 -3.04816e-20)
(42.5693 1.77208 -1.05566e-22)
(42.6232 2.09961 1.17486e-22)
(42.6432 2.4608 0)
(42.6317 2.81142 -4.41618e-20)
(42.626 3.15912 -2.99763e-20)
(42.6344 3.49375 3.27562e-20)
(42.6261 3.86264 -4.12489e-20)
(42.6117 4.23409 -1.6496e-20)
(42.5925 4.61381 2.28526e-21)
(42.5412 5.00607 -1.48456e-21)
(42.4652 5.40271 0)
(42.37 5.80413 6.30763e-20)
(42.2622 6.20707 -7.58823e-20)
(42.14 6.61298 9.79574e-20)
(41.983 7.05343 2.95948e-22)
(41.8399 7.5938 -7.00036e-21)
(41.6717 8.08311 0)
(41.5077 8.4207 -7.71522e-21)
(41.4157 8.72471 2.26021e-20)
(41.335 9.12643 -8.01163e-20)
(41.2378 9.58391 -7.78601e-20)
(41.1296 9.98898 0)
(41.025 10.3643 2.53349e-20)
(41.004 10.7719 -1.05405e-19)
(41.0105 11.2055 4.81555e-20)
(40.9884 11.6243 -1.91166e-19)
(41.003 12.0209 -1.16875e-19)
(41.0745 12.4426 2.30478e-19)
(41.161 12.85 -7.88213e-20)
(41.2483 13.2574 -1.93226e-19)
(41.4115 13.652 -7.70724e-20)
(41.6101 14.0579 -1.75396e-19)
(41.8405 14.4383 0)
(42.1037 14.8032 -4.00837e-19)
(42.4026 15.1577 8.84136e-19)
(42.7323 15.4729 5.81021e-19)
(43.1202 15.7834 -7.22087e-19)
(43.5304 16.0623 9.89859e-19)
(44.0015 16.3236 -4.90339e-19)
(44.1249 16.3671 1.38185e-18)
(43.8083 16.1775 8.18921e-21)
(41.5589 15.2015 0)
(34.8025 12.3357 2.61009e-18)
(20.2692 6.11855 -2.215e-18)
(2.78879 -0.0160998 -7.95937e-19)
(40.537 0.258082 3.6903e-21)
(42.8938 0.226734 -6.63754e-20)
(42.9594 0.866094 1.79512e-20)
(43.0132 1.02374 -2.62794e-20)
(43.0644 1.50012 -4.99774e-20)
(43.1014 1.83909 -2.35106e-21)
(43.1253 2.22899 1.33027e-21)
(43.146 2.60798 0)
(43.1769 3.00167 -7.88888e-20)
(43.1862 3.42106 7.21082e-20)
(43.1516 3.85902 0)
(43.1177 4.27671 -4.32959e-21)
(43.0599 4.70015 -3.54615e-20)
(42.9795 5.12621 6.15831e-20)
(42.8898 5.54283 -7.79102e-20)
(42.7949 5.95517 3.20932e-22)
(42.6924 6.36691 6.12047e-21)
(42.5782 6.776 0)
(42.4631 7.17839 4.52403e-20)
(42.3697 7.54447 6.16668e-20)
(42.2668 7.81103 -4.21373e-21)
(42.1876 8.1078 0)
(42.1084 8.55334 0)
(41.9322 9.04222 3.93379e-20)
(41.7632 9.44359 1.0736e-20)
(41.6658 9.7751 -1.07824e-19)
(41.5934 10.145 3.52197e-20)
(41.5583 10.5575 -2.15019e-20)
(41.5154 10.9495 4.65888e-20)
(41.4754 11.3093 3.89603e-20)
(41.4944 11.674 9.0765e-20)
(41.5402 12.0671 -2.13378e-19)
(41.5892 12.4291 1.60937e-19)
(41.6535 12.7958 -1.46971e-19)
(41.7979 13.1551 -1.79582e-19)
(41.9547 13.5186 -1.78499e-19)
(42.1375 13.8496 0)
(42.3585 14.1783 5.54398e-19)
(42.6106 14.4921 -2.0576e-19)
(42.8888 14.7707 -5.12139e-19)
(43.2062 15.041 6.36693e-19)
(43.52 15.259 -2.98061e-20)
(43.9979 15.526 -5.04118e-19)
(44.1937 15.6055 -1.34624e-20)
(44.1476 15.5332 -7.4288e-19)
(43.0257 15.0306 -1.8298e-18)
(39.1839 13.5155 1.03505e-18)
(29.7831 9.81084 0)
(12.5168 2.9818 -1.40881e-18)
(1.0001 -0.111106 2.7181e-18)
(40.8865 0.333967 1.56314e-22)
(43.3485 0.301935 6.65514e-20)
(43.3672 0.995084 -3.23731e-20)
(43.3937 1.16666 -9.15156e-22)
(43.3937 1.64429 5.00496e-20)
(43.43 1.97821 0)
(43.4856 2.33828 0)
(43.5095 2.73511 -3.08778e-21)
(43.5145 3.1259 1.55773e-19)
(43.517 3.49077 -4.57832e-20)
(43.528 3.8662 4.28708e-21)
(43.5279 4.26477 -9.52926e-21)
(43.5194 4.66575 1.72181e-20)
(43.5027 5.07299 -1.21387e-20)
(43.4549 5.49106 1.39925e-19)
(43.378 5.9131 -3.71793e-20)
(43.2828 6.33632 4.12214e-20)
(43.1737 6.75491 8.59815e-21)
(43.0568 7.16918 -7.12168e-20)
(42.9066 7.60447 -3.64558e-20)
(42.7505 8.13837 2.79468e-22)
(42.5808 8.64493 -1.38128e-20)
(42.4103 8.98213 0)
(42.3073 9.25354 -4.35578e-20)
(42.2294 9.58848 8.72249e-22)
(42.1536 9.9985 -1.62883e-20)
(42.0735 10.374 1.63709e-20)
(41.9736 10.6945 5.13685e-20)
(41.9408 11.0273 0)
(41.9673 11.3864 3.53832e-20)
(41.9706 11.7445 1.96702e-19)
(41.9841 12.0642 1.80432e-19)
(42.049 12.3975 -8.40075e-20)
(42.1623 12.717 2.35603e-19)
(42.2602 13.0359 -2.11066e-19)
(42.4064 13.3282 -1.38766e-19)
(42.5899 13.6324 0)
(42.8001 13.9134 -3.71995e-19)
(43.0283 14.1638 -2.5597e-19)
(43.2805 14.4041 2.85923e-19)
(43.5312 14.5976 -3.505e-19)
(43.9386 14.8513 4.09841e-19)
(44.1388 14.9477 0)
(44.1562 14.9358 3.01996e-19)
(43.5766 14.6674 0)
(41.3441 13.8125 4.56118e-19)
(35.3292 11.5619 -1.03488e-18)
(23.0441 6.9841 5.8491e-19)
(6.54026 1.16093 0)
(0.0439154 -0.0214834 1.76653e-19)
(41.2619 0.290124 3.17884e-23)
(43.8113 0.272447 3.64012e-23)
(43.8765 0.958411 3.31243e-20)
(43.9342 1.1118 1.82501e-22)
(43.9846 1.62975 1.72465e-21)
(44.0392 1.97215 2.32633e-22)
(44.0695 2.40758 -2.58943e-22)
(44.1065 2.81816 5.91545e-22)
(44.1441 3.24307 -7.06945e-20)
(44.1715 3.7163 -1.76627e-21)
(44.1583 4.18302 -8.37942e-22)
(44.1322 4.64303 1.87049e-21)
(44.0799 5.10721 5.35187e-20)
(44.0015 5.57067 -6.0575e-20)
(43.9062 6.02012 -7.15641e-20)
(43.8063 6.45861 3.72058e-20)
(43.694 6.89074 -3.96371e-20)
(43.567 7.31289 -2.14747e-21)
(43.4347 7.72461 -2.40056e-21)
(43.3103 8.10102 0)
(43.2028 8.36596 -3.03315e-21)
(43.1118 8.61689 -1.45592e-21)
(43.0202 9.01716 1.62984e-21)
(42.8514 9.47148 0)
(42.6794 9.86508 0)
(42.5685 10.1622 6.7005e-20)
(42.4629 10.4575 0)
(42.4284 10.8044 -5.14357e-20)
(42.4197 11.1447 0)
(42.3766 11.4477 3.09273e-21)
(42.3724 11.7277 -1.03184e-19)
(42.4224 12.0368 7.94988e-21)
(42.4878 12.3233 -1.58129e-19)
(42.532 12.6119 1.52515e-20)
(42.6551 12.8818 9.68723e-20)
(42.8071 13.1629 1.56858e-19)
(42.9726 13.4118 -5.92613e-21)
(43.1558 13.641 0)
(43.3574 13.8637 -4.29382e-21)
(43.5655 14.0499 5.14206e-21)
(43.886 14.2776 0)
(44.1006 14.4085 -6.68792e-21)
(44.1421 14.4235 -3.31545e-20)
(43.8776 14.326 -2.81179e-19)
(42.5035 13.8284 -5.91262e-21)
(38.4375 12.364 0)
(29.4486 9.12748 0)
(14.0316 3.55326 8.0899e-20)
(2.98587 0.387893 -8.00958e-20)
(-0.535016 -0.0249818 1.80354e-19)
(41.5885 0.279935 1.04183e-19)
(44.2856 0.306007 1.15115e-19)
(44.3121 1.01727 6.28914e-20)
(44.3361 1.19451 7.29716e-20)
(44.3478 1.71612 7.65868e-20)
(44.4002 2.05284 -8.88697e-20)
(44.4667 2.44286 0)
(44.5051 2.86948 0)
(44.5287 3.29852 6.5976e-20)
(44.5514 3.68674 1.76582e-21)
(44.5711 4.11106 -7.93058e-20)
(44.5821 4.54513 -5.14454e-21)
(44.5795 4.98384 -1.00191e-19)
(44.5625 5.42704 1.12261e-19)
(44.5112 5.87912 1.35835e-19)
(44.4277 6.33455 0)
(44.3229 6.78614 0)
(44.1995 7.22729 2.14678e-21)
(44.0657 7.65644 2.3994e-21)
(43.9054 8.08146 -1.15176e-19)
(43.7198 8.6 3.0325e-21)
(43.5269 9.12532 0)
(43.3308 9.46296 0)
(43.1777 9.71702 -2.11476e-20)
(43.0833 9.98087 -1.08466e-19)
(42.986 10.3154 3.04497e-20)
(42.9205 10.6551 0)
(42.8282 10.932 -8.46748e-20)
(42.7509 11.19 0)
(42.7493 11.46 -3.09169e-21)
(42.7609 11.7517 0)
(42.7704 12.0062 0)
(42.7974 12.2614 4.91784e-20)
(42.9027 12.4996 6.19799e-20)
(43.0098 12.7514 0)
(43.1329 12.9711 0)
(43.2759 13.188 5.923e-21)
(43.4409 13.399 0)
(43.6145 13.5766 4.29116e-21)
(43.8579 13.7791 -1.74068e-19)
(44.0681 13.9382 1.9108e-19)
(44.121 13.9766 1.91074e-20)
(43.9972 13.9643 1.40008e-20)
(43.0967 13.6696 -3.18411e-19)
(40.2077 12.651 -1.89231e-19)
(33.5436 10.3208 1.08665e-18)
(21.3281 6.04766 -4.89701e-19)
(6.80286 1.33149 -5.67962e-19)
(0.74059 0.151588 4.68924e-19)
(-0.755399 -0.029203 0)
(42.0085 0.2811 -1.03784e-19)
(44.7849 0.262989 1.67868e-19)
(44.8449 0.923632 -6.15019e-20)
(44.9087 1.06796 1.05849e-19)
(44.9728 1.60395 -8.07165e-20)
(45.0492 1.95437 9.13169e-20)
(45.1171 2.42549 7.27803e-21)
(45.1835 2.86478 -8.10324e-21)
(45.2449 3.32312 -5.66268e-20)
(45.294 3.84263 -1.03595e-20)
(45.3065 4.34835 8.38599e-20)
(45.2981 4.85814 2.36524e-19)
(45.2545 5.37594 -1.60165e-19)
(45.1792 5.88912 -1.01876e-19)
(45.0761 6.38628 -4.85424e-19)
(44.9577 6.86481 2.08755e-20)
(44.8226 7.3302 -2.32997e-20)
(44.6667 7.77897 2.31807e-19)
(44.4987 8.20601 2.89745e-20)
(44.3241 8.59765 8.26135e-20)
(44.1809 8.88352 0)
(44.0407 9.08409 0)
(43.9259 9.43839 0)
(43.7317 9.83403 0)
(43.5342 10.2158 1.07449e-19)
(43.4037 10.5022 -2.97427e-19)
(43.2413 10.7298 0)
(43.1507 10.9893 2.82753e-19)
(43.1447 11.2645 0)
(43.1022 11.5184 0)
(43.0621 11.7276 -3.18478e-19)
(43.0764 11.9526 1.84343e-19)
(43.1475 12.1681 -4.25597e-19)
(43.1908 12.3988 1.25381e-19)
(43.276 12.5946 0)
(43.3926 12.7994 0)
(43.53 12.9967 2.19778e-19)
(43.6779 13.1628 -7.6546e-19)
(43.8645 13.3466 0)
(44.0653 13.5281 -5.1421e-19)
(44.1286 13.5866 7.83587e-19)
(44.0885 13.616 -9.72356e-19)
(43.4691 13.4394 5.54847e-19)
(41.3742 12.7402 -6.68656e-19)
(36.2602 11.0237 1.70329e-18)
(26.2709 7.6368 -1.50365e-18)
(11.0358 2.5837 9.79194e-19)
(2.70844 0.493023 -2.1841e-18)
(-0.388011 0.0612094 2.59499e-18)
(-0.753055 0.014458 -1.66945e-18)
(42.2957 0.163958 -3.07555e-19)
(45.2048 0.260379 5.11982e-20)
(45.2592 0.923099 0)
(45.2965 1.08405 -1.77647e-19)
(45.3364 1.60932 -4.86786e-19)
(45.4134 1.94262 1.53279e-20)
(45.504 2.352 0)
(45.5759 2.80853 0)
(45.6323 3.26179 -2.27242e-20)
(45.695 3.69178 2.52963e-20)
(45.7394 4.16572 -5.04525e-19)
(45.7653 4.65683 3.34039e-19)
(45.7781 5.14346 2.65616e-19)
(45.761 5.64155 -3.61016e-19)
(45.7035 6.14713 3.33522e-19)
(45.6096 6.65208 5.13788e-20)
(45.487 7.14957 -5.60554e-19)
(45.3371 7.63151 -7.90994e-19)
(45.167 8.09219 0)
(44.9693 8.52768 3.45819e-19)
(44.7371 9.02602 3.84451e-19)
(44.4939 9.57158 0)
(44.2207 9.91885 -4.76543e-19)
(44.0092 10.1777 0)
(43.865 10.3871 0)
(43.7047 10.6243 2.965e-19)
(43.6097 10.905 2.03858e-19)
(43.535 11.1481 4.58697e-19)
(43.4147 11.345 0)
(43.3432 11.5225 0)
(43.3309 11.7298 1.45299e-19)
(43.3486 11.9213 1.92214e-19)
(43.347 12.1132 7.20679e-19)
(43.4104 12.275 1.50086e-20)
(43.5117 12.4662 1.7865e-20)
(43.6266 12.6426 -7.65443e-19)
(43.7454 12.7936 -2.42719e-20)
(43.8882 12.9597 1.0277e-18)
(44.0797 13.1494 6.16971e-19)
(44.1555 13.2309 3.47518e-19)
(44.146 13.2749 8.70317e-19)
(43.6869 13.179 3.87129e-20)
(42.0934 12.6896 -1.13028e-18)
(37.9954 11.3632 -6.67628e-19)
(29.5799 8.55736 -1.90054e-18)
(15.6261 3.96702 2.13756e-18)
(4.91865 0.952795 -9.57016e-19)
(0.554448 0.232864 0)
(-0.843045 0.0630806 0)
(-0.657753 0.0499435 3.29633e-19)
(42.5817 0.169187 1.00562e-18)
(45.635 0.170964 4.32894e-19)
(45.7394 0.726854 -4.26705e-19)
(45.8309 0.861725 1.42024e-20)
(45.9334 1.38842 1.0152e-18)
(46.0596 1.71989 -1.78697e-20)
(46.1817 2.21668 0)
(46.3061 2.67884 -8.01087e-19)
(46.4209 3.17671 -2.68128e-20)
(46.5114 3.73369 -5.65411e-22)
(46.5695 4.2938 1.12742e-18)
(46.596 4.86007 -5.30164e-19)
(46.5739 5.45677 4.48294e-22)
(46.5105 6.04099 3.11379e-19)
(46.4025 6.61059 0)
(46.2616 7.15968 0)
(46.0934 7.68712 4.33709e-19)
(45.8929 8.18923 6.34171e-19)
(45.6677 8.6589 0)
(45.4223 9.08528 -3.44705e-19)
(45.2072 9.4104 -3.83145e-19)
(44.9861 9.59455 -1.14791e-19)
(44.831 9.91166 5.60036e-20)
(44.5679 10.2304 4.66499e-19)
(44.3109 10.5698 1.60359e-19)
(44.1293 10.8566 1.82753e-19)
(43.9262 11.0479 -5.92658e-19)
(43.7352 11.2154 -4.45611e-19)
(43.6653 11.3973 5.64772e-19)
(43.6167 11.587 -6.5094e-19)
(43.5625 11.7401 0)
(43.5257 11.8895 0)
(43.5683 12.027 3.0822e-20)
(43.6333 12.2009 -5.69679e-19)
(43.713 12.3421 7.02837e-19)
(43.8013 12.4732 1.2367e-18)
(43.9099 12.6196 -4.60886e-19)
(44.0993 12.8023 -1.10834e-18)
(44.1847 12.897 -1.20027e-18)
(44.1924 12.9388 -7.24625e-19)
(43.8329 12.9046 -3.28135e-20)
(42.589 12.5575 9.94471e-19)
(39.2316 11.4956 0)
(31.9782 9.0984 6.61163e-19)
(19.1758 4.93964 7.52099e-19)
(7.17861 1.44664 8.48224e-19)
(1.64583 0.351166 2.84632e-18)
(-0.458848 0.0933711 -1.05724e-18)
(-0.932964 0.0702442 0)
(-0.518972 0.0579803 0)
(42.8223 0.0554493 7.09441e-20)
(45.9793 0.140922 -7.6492e-19)
(46.0743 0.678675 4.40264e-19)
(46.1491 0.784623 -1.06975e-18)
(46.2312 1.28514 -5.77653e-19)
(46.3746 1.5905 -4.94805e-22)
(46.5183 2.01125 2.30937e-20)
(46.6515 2.48122 7.45374e-19)
(46.7741 2.96197 6.0152e-20)
(46.891 3.43934 7.02002e-20)
(46.984 3.97568 -5.86962e-19)
(47.053 4.53373 -8.88176e-20)
(47.0973 5.08693 -8.68455e-19)
(47.0926 5.66755 -9.79463e-19)
(47.0393 6.25309 1.28002e-19)
(46.9373 6.83946 -1.42715e-19)
(46.7924 7.41544 0)
(46.6072 7.96948 -7.57899e-19)
(46.3861 8.49424 0)
(46.1295 8.9797 0)
(45.8193 9.46985 0)
(45.5067 10.0533 -2.61354e-19)
(45.1108 10.4434 8.32639e-19)
(44.8078 10.6904 -6.06137e-19)
(44.5861 10.9027 0)
(44.3439 11.0466 -2.01505e-19)
(44.1382 11.2209 -7.17696e-19)
(44.0455 11.4015 -1.06418e-18)
(43.9122 11.5476 -8.57278e-19)
(43.7723 11.6468 6.26232e-19)
(43.6985 11.7563 -7.76679e-19)
(43.7085 11.8642 4.41596e-19)
(43.7199 11.9924 1.0721e-18)
(43.7563 12.0889 0)
(43.8295 12.204 7.63533e-19)
(43.9267 12.3292 -1.67293e-18)
(44.113 12.4836 -4.06069e-20)
(44.2055 12.5744 1.04375e-18)
(44.2196 12.6188 6.16055e-19)
(43.9262 12.6133 0)
(42.927 12.3752 9.0144e-19)
(40.1548 11.5292 -1.04433e-18)
(33.683 9.42565 2.35512e-18)
(21.5566 5.55577 0)
(9.21266 1.97929 -3.00555e-18)
(2.80786 0.588557 8.33994e-19)
(0.108949 0.248542 -9.34377e-19)
(-0.818561 0.18011 -1.04107e-18)
(-0.855444 0.149066 2.31433e-18)
(-0.380889 0.0667723 3.87496e-22)
(42.806 -0.0484566 -7.59704e-19)
(46.2402 -0.0194122 9.04596e-19)
(46.439 0.383241 -1.02334e-18)
(46.5818 0.472767 2.22876e-18)
(46.7494 0.953863 -1.36215e-18)
(46.9582 1.24509 9.08884e-20)
(47.1664 1.73782 -9.22504e-19)
(47.3737 2.20511 0)
(47.5739 2.73633 -1.15234e-18)
(47.7385 3.32571 1.40338e-18)
(47.8856 3.92982 2.09358e-21)
(47.9835 4.58292 -1.007e-19)
(48.0215 5.27458 8.65524e-19)
(47.997 5.95792 -1.35441e-19)
(47.903 6.63777 1.10378e-18)
(47.7543 7.29862 1.63562e-19)
(47.5518 7.93446 0)
(47.3017 8.53736 7.54488e-19)
(47.004 9.09553 1.90094e-18)
(46.6687 9.59261 0)
(46.3364 9.99373 0)
(45.9923 10.208 0)
(45.7195 10.4543 -1.03999e-18)
(45.411 10.7719 -1.85129e-18)
(45.0303 11.0336 3.92209e-19)