/*--------------------------------*- C++ -*----------------------------------*\
| =========                 |                                                 |
| \\      /  F ield         | OpenFOAM: The Open Source CFD Toolbox           |
|  \\    /   O peration     | Version:  v1912                                 |
|   \\  /    A nd           | Website:  www.openfoam.com                      |
|    \\/     M anipulation  |                                                 |
\*---------------------------------------------------------------------------*/
FoamFile
{
    version     2.0;
    format      ascii;
    class       surfaceScalarField;
    location    "0.15";
    object      phi;
}
// * * * * * * * * * * * * * * * * * * * * * * * * * * * * * * * * * * * * * //

dimensions      [0 3 -1 0 0 0 0];
oriented        oriented;


internalField   nonuniform List<scalar> 
13060
(
0.00565193
0.988544
-0.994196
0.00702585
0.94646
-0.947834
0.00779568
0.900861
-0.901631
0.00844332
0.857641
-0.858289
0.00897049
0.817539
-0.818066
0.00926829
0.779676
-0.779973
0.00926848
0.743559
-0.743559
0.00926013
0.708972
-0.708964
0.00907057
0.675828
-0.675638
0.00911196
0.644065
-0.644106
0.00902522
0.613558
-0.613472
0.00873776
0.584905
-0.584618
0.00842949
0.55723
-0.556921
0.00809215
0.530576
-0.530239
0.00794476
0.505016
-0.504869
0.00788347
0.480558
-0.480496
0.00784576
0.45713
-0.457092
0.00780896
0.434724
-0.434688
0.00777685
0.413241
-0.413209
0.00773244
0.392754
-0.392709
0.00766596
0.373134
-0.373068
0.00759207
0.354418
-0.354345
0.00751851
0.336576
-0.336502
0.00751579
0.319415
-0.319412
0.00765354
0.303002
-0.30314
0.00770997
0.287501
-0.287557
0.00757527
0.272882
-0.272747
0.00735033
0.258847
-0.258622
0.00707894
0.245429
-0.245158
0.00671984
0.232813
-0.232454
0.00631108
0.220882
-0.220473
0.00589061
0.20952
-0.209099
0.00544482
0.198767
-0.198322
0.00495493
0.188639
-0.188149
0.00441222
0.17907
-0.178527
0.00385703
0.170041
-0.169486
0.00327306
0.161613
-0.161029
0.00264276
0.153718
-0.153088
0.00200929
0.1463
-0.145666
0.00137502
0.139354
-0.13872
0.000727978
0.132843
-0.132196
0.000103479
0.126755
-0.12613
-0.000581068
0.121067
-0.120383
-0.00122845
0.115757
-0.11511
-0.00183312
0.1108
-0.110196
-0.00233903
0.106261
-0.105755
-0.00290314
0.101639
-0.101075
-0.00309922
0.0979251
-0.097729
-0.00233512
0.0892276
-0.0899917
0.0600493
-0.0623845
0.00552256
0.983022
0.00648406
0.945498
0.00667714
0.900668
0.00614203
0.858176
0.00558568
0.818095
0.00513043
0.780131
0.00484486
0.743845
0.00446171
0.709355
0.00415314
0.676136
0.00390626
0.644312
0.00346806
0.613996
0.0035419
0.584831
0.00371278
0.557059
0.00384339
0.530446
0.00379085
0.505069
0.00369405
0.480655
0.00357832
0.457245
0.00345206
0.434851
0.00331758
0.413376
0.0031844
0.392887
0.00304215
0.373276
0.00288538
0.354575
0.00270411
0.336757
0.00236718
0.319752
0.0018394
0.30353
0.00133508
0.288005
0.00108844
0.273129
0.000905157
0.25903
0.000616658
0.245718
0.000370859
0.233059
0.000150244
0.221102
-0.000139963
0.20981
-0.000474182
0.199102
-0.000815288
0.18898
-0.00116736
0.179422
-0.00157085
0.170444
-0.00199512
0.162037
-0.00240276
0.154126
-0.00282283
0.14672
-0.00325447
0.139785
-0.00365829
0.133247
-0.00402746
0.127124
-0.00432639
0.121366
-0.00456393
0.115994
-0.00473421
0.110971
-0.00480284
0.10633
-0.00485281
0.101689
-0.00432746
0.0973998
-0.00297278
0.0878729
0.0570766
0.00519871
0.977823
0.00541612
0.945281
0.00499163
0.901092
0.0041555
0.859012
0.00354287
0.818708
0.00283881
0.780835
0.00199906
0.744684
0.00136442
0.70999
0.000661982
0.676839
4.12221e-05
0.644933
-0.000509576
0.614547
-0.0012769
0.585599
-0.00210193
0.557884
-0.00278156
0.531125
-0.00316084
0.505448
-0.00350063
0.480994
-0.00379725
0.457542
-0.0040692
0.435123
-0.00433108
0.413638
-0.00457552
0.393131
-0.0048072
0.373508
-0.00501684
0.354785
-0.0051788
0.336919
-0.00517691
0.31975
-0.00495437
0.303308
-0.0048787
0.287929
-0.00511684
0.273367
-0.0053511
0.259264
-0.00548936
0.245856
-0.00572508
0.233295
-0.00599289
0.22137
-0.00621518
0.210032
-0.00643997
0.199326
-0.00668172
0.189221
-0.00693051
0.17967
-0.00714542
0.170659
-0.00734845
0.16224
-0.00756185
0.154339
-0.00774414
0.146902
-0.0078796
0.139921
-0.0079827
0.13335
-0.00803451
0.127176
-0.00800855
0.12134
-0.00789516
0.115881
-0.00767931
0.110755
-0.00734966
0.106
-0.00693425
0.101273
-0.00581782
0.0962833
-0.0037229
0.085778
0.0533537
0.00406133
0.973761
0.00377122
0.945571
0.00265875
0.902205
0.00121247
0.860459
-0.000172733
0.820093
-0.00155653
0.782219
-0.00255019
0.745678
-0.0036615
0.711101
-0.00450943
0.677687
-0.00535266
0.645776
-0.00600389
0.615198
-0.00632911
0.585924
-0.00650614
0.558061
-0.00683579
0.531455
-0.0072687
0.505881
-0.00763944
0.481365
-0.00800893
0.457912
-0.00836804
0.435482
-0.00871791
0.413988
-0.00903693
0.39345
-0.00933171
0.373803
-0.00960923
0.355062
-0.00990139
0.337211
-0.0103548
0.320204
-0.0109748
0.303928
-0.011419
0.288373
-0.0115686
0.273516
-0.0117349
0.259431
-0.0119788
0.2461
-0.0121236
0.233439
-0.0122085
0.221455
-0.012324
0.210148
-0.0124324
0.199435
-0.012504
0.189293
-0.0125478
0.179714
-0.0126111
0.170722
-0.0126431
0.162272
-0.012609
0.154305
-0.0125403
0.146833
-0.0124299
0.139811
-0.0122367
0.133157
-0.0119452
0.126884
-0.0115639
0.120959
-0.0110756
0.115393
-0.0104645
0.110144
-0.00965639
0.105192
-0.00875671
0.100374
-0.00721754
0.0947442
-0.0044613
0.0830218
0.0488924
0.00337234
0.970389
0.00207116
0.946872
0.000262122
0.904014
-0.0010687
0.861789
-0.00266195
0.821686
-0.00407018
0.783627
-0.0055525
0.74716
-0.00669769
0.712246
-0.00784355
0.678832
-0.00906209
0.646994
-0.010218
0.616354
-0.011538
0.587244
-0.0128244
0.559347
-0.0137082
0.532339
-0.0144296
0.506602
-0.0151197
0.482055
-0.0156998
0.458492
-0.01621
0.435992
-0.0166751
0.414453
-0.0170944
0.39387
-0.0174639
0.374172
-0.0177778
0.355376
-0.0179999
0.337433
-0.0179747
0.320178
-0.0177413
0.303694
-0.0176653
0.288297
-0.017875
0.273726
-0.0180365
0.259592
-0.01806
0.246123
-0.0181501
0.233529
-0.0182673
0.221572
-0.0182931
0.210174
-0.0182715
0.199413
-0.0182337
0.189255
-0.0181634
0.179644
-0.0180081
0.170567
-0.0178012
0.162065
-0.0175615
0.154065
-0.017245
0.146517
-0.0168287
0.139394
-0.016332
0.13266
-0.0157462
0.126298
-0.0150498
0.120262
-0.0142321
0.114575
-0.0132933
0.109205
-0.0121937
0.104092
-0.0109193
0.0990992
-0.0088846
0.0927095
-0.00528474
0.0794219
0.0436076
0.00191899
0.96847
3.97967e-05
0.948751
-0.00253885
0.906593
-0.00457075
0.863821
-0.00668876
0.823804
-0.00863489
0.785573
-0.0103473
0.748873
-0.0121577
0.714057
-0.013637
0.680312
-0.0148766
0.648234
-0.015878
0.617356
-0.0164448
0.58781
-0.0169531
0.559856
-0.0177753
0.533161
-0.0185164
0.507343
-0.0191528
0.482692
-0.0197773
0.459116
-0.020375
0.43659
-0.0209214
0.414999
-0.0214048
0.394353
-0.0218393
0.374607
-0.0222359
0.355773
-0.0226392
0.337836
-0.0232138
0.320753
-0.0239274
0.304408
-0.0243485
0.288719
-0.0243929
0.27377
-0.0244424
0.259642
-0.0245735
0.246254
-0.02455
0.233506
-0.0244146
0.221437
-0.0242936
0.210053
-0.0241328
0.199252
-0.0238869
0.189009
-0.023573
0.17933
-0.023243
0.170237
-0.0228441
0.161667
-0.022339
0.15356
-0.0217528
0.145931
-0.0210898
0.138731
-0.0203157
0.131886
-0.0194153
0.125398
-0.0184054
0.119253
-0.017278
0.113448
-0.0160325
0.107959
-0.0147251
0.102785
-0.0129994
0.0973735
-0.0104533
0.0901634
-0.00605795
0.0750266
0.0375497
0.00110781
0.967362
-0.00192638
0.951786
-0.00481905
0.909485
-0.00707429
0.866077
-0.00940068
0.826131
-0.011476
0.787648
-0.0135817
0.750979
-0.0152159
0.715691
-0.0168916
0.681987
-0.0185795
0.649922
-0.020276
0.619052
-0.0221711
0.589706
-0.0237831
0.561468
-0.0249662
0.534344
-0.0261005
0.508478
-0.0271499
0.483741
-0.0280178
0.459984
-0.0287697
0.437342
-0.0294318
0.415661
-0.0300128
0.394934
-0.0305034
0.375097
-0.0308873
0.356157
-0.0311216
0.338071
-0.0310291
0.32066
-0.0307085
0.304087
-0.0305874
0.288598
-0.0307424
0.273925
-0.0307769
0.259676
-0.0306148
0.246092
-0.0304948
0.233386
-0.0303682
0.22131
-0.0301104
0.209795
-0.0297689
0.198911
-0.0293837
0.188624
-0.0289344
0.178881
-0.0283609
0.169663
-0.0276995
0.161005
-0.026976
0.152836
-0.0261548
0.14511
-0.0252076
0.137784
-0.0241586
0.130837
-0.0230202
0.12426
-0.0217708
0.118003
-0.0204039
0.112081
-0.018919
0.106474
-0.0173945
0.10126
-0.0152676
0.0952465
-0.0121421
0.0870379
-0.0068413
0.0697258
0.0307084
0.000136128
0.967226
-0.00361591
0.955538
-0.007275
0.913144
-0.0105986
0.8694
-0.0135421
0.829074
-0.0161609
0.790267
-0.0183685
0.753186
-0.0205937
0.717916
-0.02278
0.684174
-0.0243401
0.651482
-0.0257286
0.620441
-0.0265772
0.590554
-0.027586
0.562476
-0.0288137
0.535572
-0.0298283
0.509492
-0.0307516
0.484664
-0.031656
0.460888
-0.032505
0.43819
-0.033247
0.416403
-0.0338898
0.395577
-0.034454
0.375662
-0.0349497
0.356652
-0.0354373
0.338558
-0.0361062
0.321329
-0.0368746
0.304856
-0.0372474
0.28897
-0.0371549
0.273833
-0.0370311
0.259552
-0.0369788
0.24604
-0.03674
0.233147
-0.0363324
0.220903
-0.0358963
0.209359
-0.0353928
0.198407
-0.0347656
0.187997
-0.0340387
0.178154
-0.0332767
0.168901
-0.0324289
0.160157
-0.0314549
0.151862
-0.0303754
0.14403
-0.0292116
0.13662
-0.027943
0.129568
-0.026549
0.122866
-0.0250606
0.116515
-0.0234978
0.110518
-0.0219085
0.104885
-0.0199866
0.0993386
-0.0174992
0.0927591
-0.0137475
0.0832861
-0.00752333
0.0635017
0.023185
-0.000528613
0.967755
-0.00502295
0.960032
-0.00905027
0.917172
-0.0126743
0.873024
-0.0158197
0.83222
-0.0185875
0.793035
-0.0211998
0.755798
-0.0234049
0.720121
-0.025508
0.686277
-0.0278903
0.653864
-0.0301757
0.622726
-0.0326428
0.593021
-0.034509
0.564342
-0.0360184
0.537081
-0.0375868
0.511061
-0.038986
0.486063
-0.0401611
0.462064
-0.0411807
0.43921
-0.0420629
0.417285
-0.0428177
0.396332
-0.0434378
0.376282
-0.0439045
0.357119
-0.0441507
0.338804
-0.0439869
0.321166
-0.0435383
0.304407
-0.043296
0.288728
-0.0433318
0.273869
-0.0432081
0.259429
-0.0428088
0.245641
-0.0424062
0.232745
-0.0419888
0.220485
-0.0414092
0.208779
-0.0407012
0.197699
-0.0399311
0.187227
-0.0390858
0.177309
-0.0380947
0.16791
-0.0369917
0.159055
-0.0358165
0.150687
-0.0345512
0.142765
-0.033162
0.135231
-0.0316687
0.128075
-0.030112
0.121309
-0.0284783
0.114881
-0.0267521
0.108792
-0.0250292
0.103162
-0.0227139
0.0970233
-0.0197905
0.0898357
-0.0151624
0.078658
-0.00797267
0.056312
0.0152124
-0.0012024
0.968957
-0.00664826
0.965478
-0.0112264
0.92175
-0.0155433
0.877341
-0.0191769
0.835853
-0.0225516
0.79641
-0.0256574
0.758904
-0.0285322
0.722996
-0.0310617
0.688806
-0.0329654
0.655768
-0.0346686
0.624429
-0.0360229
0.594376
-0.037648
0.565968
-0.0392525
0.538686
-0.0405502
0.512358
-0.0417797
0.487293
-0.0430003
0.463284
-0.0441126
0.440322
-0.0450868
0.41826
-0.0459272
0.397172
-0.0466455
0.377
-0.0472585
0.357732
-0.0478334
0.339379
-0.0485579
0.32189
-0.0493501
0.305199
-0.0496735
0.289051
-0.0494234
0.273619
-0.0490778
0.259083
-0.048816
0.245379
-0.048347
0.232275
-0.0476405
0.219779
-0.0468678
0.208006
-0.0460172
0.196849
-0.0450187
0.186228
-0.0438933
0.176183
-0.0427254
0.166742
-0.0414802
0.157809
-0.0401135
0.14932
-0.0386336
0.141285
-0.0370761
0.133674
-0.0354431
0.126442
-0.0336974
0.119563
-0.0318786
0.113062
-0.0301469
0.10706
-0.0280977
0.101113
-0.0255257
0.0944514
-0.0218786
0.0861886
-0.0158298
0.0726092
-0.00672349
0.0472057
0.00848888
-0.00215882
0.971116
-0.00787533
0.971194
-0.0125371
0.926412
-0.0167537
0.881558
-0.0208177
0.839917
-0.0242258
0.799818
-0.0273889
0.762067
-0.0303038
0.725911
-0.0330715
0.691574
-0.0360229
0.658719
-0.038898
0.627304
-0.0415903
0.597068
-0.0437911
0.568168
-0.0458506
0.540745
-0.0479983
0.514506
-0.0498034
0.489098
-0.0513177
0.464798
-0.0526352
0.44164
-0.0537878
0.419412
-0.0547715
0.398156
-0.0555692
0.377798
-0.0561642
0.358327
-0.0564786
0.339694
-0.0563327
0.321744
-0.055787
0.304654
-0.055378
0.288642
-0.0552666
0.273507
-0.0549939
0.25881
-0.0543488
0.244734
-0.0536345
0.231561
-0.0529206
0.219065
-0.0520405
0.207126
-0.0509937
0.195802
-0.0498716
0.185106
-0.0486873
0.174999
-0.0473549
0.16541
-0.0458948
0.156349
-0.0443606
0.147786
-0.0427596
0.139684
-0.0410599
0.131974
-0.0392609
0.124643
-0.0374236
0.117726
-0.0355893
0.111228
-0.0336942
0.105165
-0.0312258
0.0986445
-0.0282023
0.0914279
-0.0235422
0.0815284
-0.0156073
0.0646743
-0.00455143
0.0361497
0.00393744
-0.0027354
0.973851
-0.00906127
0.97752
-0.0143151
0.931665
-0.0191817
0.886424
-0.0233575
0.844093
-0.0274599
0.80392
-0.0310153
0.765623
-0.0344018
0.729298
-0.0372558
0.694428
-0.0396616
0.661125
-0.0417899
0.629433
-0.0439273
0.599205
-0.0461322
0.570373
-0.0480577
0.542671
-0.0496897
0.516138
-0.0513501
0.490758
-0.0529788
0.466427
-0.0544509
0.443112
-0.0557463
0.420708
-0.0568698
0.399279
-0.0578176
0.378746
-0.0586047
0.359114
-0.0592968
0.340386
-0.0600634
0.322511
-0.0608919
0.305482
-0.0612577
0.289008
-0.0609218
0.273171
-0.0603705
0.258259
-0.0599196
0.244283
-0.0592671
0.230909
-0.0582997
0.218098
-0.0572192
0.206046
-0.0560731
0.194656
-0.054784
0.183817
-0.0533424
0.173557
-0.051852
0.16392
-0.0503084
0.154806
-0.0486669
0.146145
-0.0469153
0.137932
-0.0450869
0.130146
-0.0432211
0.122777
-0.0412982
0.115803
-0.0394454
0.109375
-0.037175
0.102895
-0.034414
0.0958834
-0.0305219
0.0875358
-0.0244195
0.0754261
-0.0151033
0.0553581
-0.00281647
0.0238629
0.00112097
-0.00268787
0.976539
-0.00874864
0.983581
-0.0141308
0.937048
-0.0191125
0.891406
-0.0234491
0.84843
-0.027293
0.807764
-0.0308988
0.769228
-0.0344681
0.732867
-0.038062
0.698022
-0.0415781
0.664641
-0.0449276
0.632782
-0.0480138
0.602291
-0.0507745
0.573134
-0.0535725
0.545469
-0.056323
0.518889
-0.058618
0.493053
-0.0606136
0.468423
-0.0623785
0.444877
-0.0639308
0.42226
-0.0652636
0.400612
-0.0663602
0.379842
-0.0671965
0.359951
-0.0676939
0.340883
-0.0676952
0.322512
-0.0671767
0.304964
-0.0666316
0.288463
-0.0663867
0.272926
-0.066048
0.25792
-0.0652448
0.24348
-0.0642596
0.229924
-0.0632933
0.217131
-0.0621878
0.20494
-0.0608805
0.193349
-0.0594759
0.182413
-0.0580424
0.172124
-0.0564824
0.16236
-0.0547888
0.153112
-0.0530156
0.144372
-0.0511918
0.136108
-0.0493077
0.128262
-0.0473411
0.120811
-0.0455266
0.113988
-0.043482
0.107331
-0.0409232
0.100336
-0.0376479
0.0926082
-0.0328164
0.0827043
-0.0248662
0.0674759
-0.0129133
0.0434052
-0.00168979
0.0126394
-0.000568817
-0.0032003
0.97974
-0.00907996
0.989461
-0.0146519
0.94262
-0.0200465
0.896801
-0.0245138
0.852897
-0.0289833
0.812234
-0.0332348
0.77348
-0.0368051
0.736437
-0.0401337
0.701351
-0.0431636
0.667671
-0.0461097
0.635728
-0.0489833
0.605165
-0.0517818
0.575933
-0.0541566
0.547843
-0.0563299
0.521062
-0.0586093
0.495333
-0.0608022
0.470616
-0.0628072
0.446882
-0.0646026
0.424055
-0.0661763
0.402186
-0.0675133
0.381179
-0.068616
0.361053
-0.0695422
0.341809
-0.0704341
0.323404
-0.0713795
0.305909
-0.0719429
0.289026
-0.0716966
0.27268
-0.0710212
0.257245
-0.0704299
0.242888
-0.0696978
0.229191
-0.0685809
0.216014
-0.0672671
0.203626
-0.0658976
0.191979
-0.064423
0.180938
-0.0627745
0.170475
-0.0610616
0.160647
-0.059319
0.151369
-0.0575174
0.14257
-0.0556312
0.134222
-0.0536655
0.126296
-0.0518468
0.118992
-0.0499171
0.112059
-0.047526
0.10494
-0.0446573
0.0974671
-0.040759
0.08871
-0.034431
0.0763764
-0.0240426
0.0570875
-0.00900003
0.0283626
-0.00112345
0.00476281
-0.00169226
-0.0026561
0.982396
-0.00881813
0.995623
-0.0138749
0.947676
-0.0187496
0.901675
-0.0232024
0.85735
-0.027281
0.816312
-0.0312752
0.777474
-0.0353639
0.740526
-0.0394475
0.705434
-0.0434962
0.67172
-0.0473288
0.639561
-0.050999
0.608835
-0.0545319
0.579465
-0.0581917
0.551503
-0.061572
0.524442
-0.0645673
0.498328
-0.0672721
0.473321
-0.069723
0.449333
-0.0719071
0.426239
-0.0738129
0.404091
-0.0754287
0.382795
-0.0767296
0.362354
-0.0776355
0.342715
-0.0780254
0.323794
-0.0777567
0.30564
-0.0772152
0.288485
-0.0769127
0.272378
-0.0766254
0.256957
-0.0758182
0.242081
-0.0746563
0.228029
-0.0734906
0.214849
-0.0722449
0.202381
-0.0707797
0.190514
-0.069166
0.179324
-0.0675524
0.168862
-0.0658616
0.158956
-0.064051
0.149559
-0.0621592
0.140678
-0.0602274
0.13229
-0.0584011
0.124469
-0.0565573
0.117148
-0.0543439
0.109845
-0.0518291
0.102425
-0.0485259
0.0941639
-0.0431369
0.083321
-0.033742
0.0669814
-0.0191968
0.0425423
-0.00489558
0.0140614
-0.000452555
0.000319793
-0.00214482
-0.00206634
0.984462
-0.00803996
1.0016
-0.0129247
0.952561
-0.0178442
0.906595
-0.0225627
0.862068
-0.0272402
0.82099
-0.031498
0.781732
-0.0354038
0.744432
-0.0391522
0.709183
-0.0428913
0.675459
-0.0465402
0.64321
-0.0501315
0.612427
-0.053623
0.582957
-0.0567082
0.554588
-0.0596938
0.527428
-0.0627997
0.501434
-0.0657727
0.476294
-0.0685727
0.452133
-0.0711406
0.428807
-0.073427
0.406378
-0.0754165
0.384785
-0.0771028
0.36404
-0.0785124
0.344125
-0.079745
0.325026
-0.0809672
0.306863
-0.081932
0.28945
-0.0820417
0.272487
-0.0814457
0.256361
-0.0808039
0.241439
-0.0800754
0.227301
-0.0789358
0.213709
-0.0774695
0.200914
-0.0759172
0.188962
-0.0743293
0.177736
-0.0725684
0.167101
-0.0707071
0.157094
-0.0688364
0.147688
-0.066958
0.1388
-0.0651139
0.130446
-0.0633048
0.12266
-0.0612389
0.115082
-0.0588849
0.107491
-0.05586
0.0993998
-0.0511358
0.0894396
-0.0429715
0.0751568
-0.0298581
0.053868
-0.0120913
0.0247755
-0.00241834
0.00438846
-1.45072e-05
-0.00208404
-0.00215932
-0.000299782
0.984762
-0.00562708
1.00692
-0.0102576
0.957192
-0.0146101
0.910947
-0.0189356
0.866394
-0.0231569
0.825211
-0.0273919
0.785967
-0.0321112
0.749151
-0.0365775
0.713649
-0.0409297
0.679811
-0.0454826
0.647763
-0.0499177
0.616862
-0.0542772
0.587317
-0.058752
0.559063
-0.0630562
0.531732
-0.0669839
0.505362
-0.0706764
0.479986
-0.0740883
0.455545
-0.0772248
0.431944
-0.080031
0.409184
-0.0824863
0.38724
-0.0845721
0.366126
-0.0862263
0.345779
-0.0873459
0.326146
-0.0876926
0.307209
-0.0874311
0.289188
-0.0872244
0.272281
-0.087136
0.256273
-0.0865263
0.24083
-0.0853417
0.226116
-0.0840282
0.212395
-0.0826814
0.199568
-0.0811292
0.187409
-0.0793357
0.175943
-0.0775303
0.165295
-0.0757319
0.155296
-0.0738727
0.145829
-0.0719804
0.136908
-0.07016
0.128626
-0.068201
0.120701
-0.0659634
0.112845
-0.0631691
0.104697
-0.0589851
0.0952158
-0.0517213
0.0821758
-0.0393357
0.0627712
-0.020702
0.0352343
-0.00568063
0.00975405
-0.000795191
-0.000496983
0.000208785
-0.00308801
-0.00195054
0.000766824
0.983995
-0.00322486
1.01092
-0.00761081
0.961578
-0.0123874
0.915724
-0.0168333
0.87084
-0.021456
0.829834
-0.0256931
0.790204
-0.0297883
0.753246
-0.0341003
0.717961
-0.0384823
0.684193
-0.0425807
0.651861
-0.0468542
0.621135
-0.0511567
0.591619
-0.0552031
0.56311
-0.0592846
0.535813
-0.0634456
0.509523
-0.0674597
0.484
-0.0713074
0.459392
-0.0749516
0.435588
-0.0783171
0.412549
-0.0813105
0.390233
-0.0839232
0.368739
-0.0861576
0.348014
-0.0880759
0.328064
-0.089857
0.30899
-0.0914735
0.290805
-0.09229
0.273097
-0.0920871
0.25607
-0.0915424
0.240285
-0.0908976
0.225472
-0.089844
0.211342
-0.0882992
0.198023
-0.0865285
0.185639
-0.0847817
0.174196
-0.0829221
0.163436
-0.0809274
0.153301
-0.0789439
0.143845
-0.0770785
0.135042
-0.0751709
0.126718
-0.0729976
0.118528
-0.0703547
0.110202
-0.0665726
0.100915
-0.0600124
0.0886555
-0.0482639
0.0704274
-0.0295358
0.044043
-0.0107871
0.0164857
-0.00261878
0.00158568
-0.000155372
-0.00296039
0.000206883
-0.00345027
-0.00174366
0.00190686
0.982088
-0.000659059
1.01348
-0.00411565
0.965034
-0.00776182
0.91937
-0.0113662
0.874444
-0.015581
0.834048
-0.0199776
0.794601
-0.0245151
0.757784
-0.0291122
0.722558
-0.034162
0.689243
-0.0394248
0.657124
-0.0445403
0.626251
-0.0497314
0.59681
-0.0551434
0.568522
-0.0604681
0.541138
-0.0655183
0.514573
-0.0703993
0.488881
-0.0751034
0.464096
-0.0795116
0.439996
-0.0835938
0.416632
-0.0873027
0.393942
-0.0905715
0.372008
-0.0933491
0.350791
-0.0955591
0.330274
-0.0969988
0.31043
-0.0974807
0.291287
-0.0976682
0.273285
-0.0979251
0.256327
-0.097725
0.240085
-0.0967442
0.224491
-0.0953696
0.209967
-0.0938927
0.196546
-0.0922483
0.183994
-0.0902585
0.172206
-0.0881422
0.161319
-0.0861333
0.151293
-0.0841681
0.14188
-0.0822017
0.133076
-0.079995
0.124512
-0.0774064
0.115939
-0.0738697
0.106665
-0.0679003
0.0949455
-0.0567176
0.0774728
-0.0380081
0.0517179
-0.016728
0.022763
-0.00473544
0.00449313
-0.000852167
-0.00229759
0.00021372
-0.00402627
0.000223931
-0.00346048
-0.00151973
0.00337115
0.978717
0.00127324
1.01558
-0.00183899
0.968146
-0.00528362
0.922815
-0.00854658
0.877707
-0.0124663
0.837968
-0.0164759
0.79861
-0.0206645
0.761972
-0.0252696
0.727163
-0.0297205
0.693694
-0.0341708
0.661574
-0.0392938
0.631374
-0.0444903
0.602007
-0.0494977
0.573529
-0.0546712
0.546312
-0.0600279
0.51993
-0.065346
0.494199
-0.0705618
0.469312
-0.075568
0.445003
-0.080343
0.421407
-0.0847915
0.398391
-0.0887683
0.375985
-0.0922793
0.354302
-0.0953017
0.333297
-0.098004
0.313132
-0.100547
0.29383
-0.102426
0.275164
-0.103115
0.257016
-0.102966
0.239936
-0.102522
0.224047
-0.101659
0.209104
-0.100153
0.19504
-0.0981098
0.181951
-0.0959874
0.170084
-0.0938684
0.1592
-0.0916243
0.149048
-0.0893649
0.139621
-0.0869876
0.130698
-0.0843314
0.121856
-0.0809224
0.11253
-0.0753348
0.101078
-0.0647598
0.0843704
-0.0461007
0.0588137
-0.0229251
0.0285422
-0.00778371
0.00762162
-0.00229764
-0.000992938
-0.000613744
-0.00398148
-7.19437e-05
-0.00456807
6.38702e-05
-0.00359629
-0.00145586
0.00596197
0.972755
0.00471367
1.01683
0.00299785
0.969862
0.000523887
0.925289
-0.00245339
0.880684
-0.00564024
0.841155
-0.00962476
0.802595
-0.0139311
0.766279
-0.0185846
0.731817
-0.0240196
0.699129
-0.02966
0.667215
-0.0351472
0.636861
-0.0409337
0.607793
-0.0473032
0.579898
-0.0536432
0.552652
-0.0598588
0.526145
-0.0660771
0.500418
-0.0721938
0.475429
-0.0781576
0.450966
-0.0838587
0.427108
-0.0892264
0.403758
-0.0941798
0.380938
-0.0985582
0.358681
-0.102324
0.337063
-0.105332
0.31614
-0.107155
0.295653
-0.108141
0.27615
-0.109064
0.257938
-0.109524
0.240396
-0.109077
0.2236
-0.107856
0.207883
-0.10623
0.193414
-0.104404
0.180125
-0.102146
0.167826
-0.0994466
0.156501
-0.0968943
0.146496
-0.0942232
0.13695
-0.091321
0.127796
-0.0878127
0.118347
-0.0823247
0.107042
-0.0722089
0.0909618
-0.0534757
0.0656372
-0.0289597
0.0342977
-0.0113703
0.0109528
-0.00439031
0.000641651
-0.0020284
-0.00335485
-0.00116231
-0.00484758
-0.000695035
-0.00503535
-0.000273676
-0.00401765
-0.00172953
0.0062107
0.966544
0.00646193
1.01658
0.00614086
0.970183
0.00376079
0.927669
0.000679413
0.883766
-0.00195791
0.843792
-0.00568767
0.806325
-0.00977838
0.770369
-0.013736
0.735774
-0.0178237
0.703217
-0.0227353
0.672126
-0.0283258
0.642451
-0.0340479
0.613515
-0.0397084
0.585559
-0.0458287
0.558772
-0.0523295
0.532646
-0.0590029
0.507091
-0.0657258
0.482152
-0.0723809
0.457621
-0.0788402
0.433567
-0.0849968
0.409915
-0.0907628
0.386704
-0.0960912
0.364009
-0.100831
0.341802
-0.104921
0.320231
-0.108731
0.299462
-0.112112
0.279531
-0.114212
0.260037
-0.115016
0.2412
-0.115081
0.223666
-0.114586
0.207388
-0.113332
0.19216
-0.111136
0.177929
-0.108433
0.165123
-0.105541
0.153608
-0.102355
0.14331
-0.0988829
0.133478
-0.0948012
0.123714
-0.0889108
0.112457
-0.0788491
0.0969807
-0.0602423
0.0723551
-0.034538
0.0399329
-0.0145116
0.0142713
-0.00575516
0.00219636
-0.00250267
-0.00261085
-0.00132913
-0.00452838
-0.000866859
-0.00530985
-0.000631426
-0.00527078
-0.000333838
-0.00431524
-0.00206337
0.00977115
0.956773
0.00937967
1.01697
0.00993091
0.969632
0.00934945
0.92825
0.00701459
0.8861
0.00396866
0.846838
0.00168676
0.808606
-0.00204263
0.774099
-0.00689016
0.740622
-0.0119487
0.708275
-0.0173029
0.67748
-0.0227028
0.647851
-0.0288681
0.61968
-0.035838
0.592529
-0.0428632
0.565797
-0.0500607
0.539843
-0.0575223
0.514553
-0.0650743
0.489704
-0.0726597
0.465207
-0.0801637
0.441071
-0.0874882
0.417239
-0.0944882
0.393704
-0.100958
0.370479
-0.106764
0.347608
-0.111764
0.325231
-0.115643
0.303341
-0.118164
0.282053
-0.120136
0.262009
-0.121655
0.24272
-0.122279
0.224289
-0.121688
0.206797
-0.120067
0.19054
-0.118112
0.175973
-0.11556
0.162572
-0.112095
0.150143
-0.107785
0.139
-0.10276
0.128453
-0.0959457
0.116901
-0.0853742
0.101885
-0.0664234
0.0780299
-0.0393254
0.0452571
-0.0162808
0.0168883
-0.00445438
0.00244487
0.000563661
-0.00282168
0.00242237
-0.00446955
0.00265234
-0.00475835
0.00198756
-0.00464507
0.000983238
-0.00426646
0.00020736
-0.00353936
-0.00185601
0.010259
0.946514
0.0112618
1.01596
0.0111145
0.969779
0.0104076
0.928957
0.00970517
0.886803
0.00706928
0.849474
0.00412494
0.811551
0.00148782
0.776736
-0.00150098
0.743611
-0.00542005
0.712194
-0.0101195
0.68218
-0.0156177
0.653349
-0.0212471
0.62531
-0.0271412
0.598423
-0.0338194
0.572475
-0.0411319
0.547156
-0.0488796
0.5223
-0.056937
0.497761
-0.0651945
0.473464
-0.0734721
0.449349
-0.081595
0.425362
-0.0894442
0.401553
-0.0969055
0.377941
-0.103836
0.354539
-0.110092
0.331486
-0.115721
0.30897
-0.121032
0.287364
-0.125029
0.266005
-0.127494
0.245185
-0.128701
0.225496
-0.128961
0.207058
-0.128492
0.19007
-0.126533
0.174014
-0.123034
0.159073
-0.1188
0.145909
-0.113111
0.133311
-0.10525
0.120591
-0.0932572
0.104908
-0.0726955
0.0813237
-0.043208
0.0485424
-0.0156755
0.0177246
0.000424819
0.000787997
0.00773737
-0.00486769
0.0103323
-0.00541657
0.010463
-0.00460028
0.00913195
-0.00342731
0.00678915
-0.00230227
0.00398429
-0.0014616
0.00139971
-0.00095479
-0.000456295
0.0134882
0.933026
0.0149079
1.01455
0.0146993
0.969988
0.0142002
0.929456
0.0144261
0.886577
0.0131451
0.850755
0.011018
0.813678
0.00777011
0.779984
0.00402188
0.747359
-5.0831e-05
0.716267
-0.00454817
0.686677
-0.00959608
0.658397
-0.0157184
0.631432
-0.0225581
0.605263
-0.0296872
0.579604
-0.0373513
0.55482
-0.045559
0.530508
-0.0542069
0.506409
-0.0632124
0.48247
-0.0724317
0.458568
-0.0817374
0.434668
-0.0909287
0.410745
-0.0997819
0.386794
-0.108133
0.36289
-0.115695
0.339048
-0.122185
0.31546
-0.127065
0.292244
-0.130808
0.269749
-0.133849
0.248226
-0.136027
0.227674
-0.137042
0.208072
-0.136039
0.189068
-0.133637
0.171613
-0.130799
0.156235
-0.125682
0.140792
-0.117352
0.124981
-0.103525
0.106764
-0.0800703
0.0814538
-0.046126
0.0473794
-0.0150138
0.0174301
0.00486753
-0.00215674
0.0135154
-0.00785988
0.0161424
-0.00749467
0.0159848
-0.00525895
0.0143442
-0.00295972
0.0118074
-0.000890532
0.00865495
0.000850209
0.00522287
0.00197049
0.00195964
0.00230844
0.00150334
0.00915156
0.923874
0.0146384
1.00906
0.0155201
0.969106
0.0144543
0.930522
0.0141791
0.886852
0.0136794
0.851255
0.0123755
0.814982
0.0109916
0.781368
0.00880314
0.749547
0.00574853
0.719322
0.00191019
0.690515
-0.00264892
0.662956
-0.00753277
0.636316
-0.0131402
0.61087
-0.0197825
0.586247
-0.0271819
0.562219
-0.0352978
0.538624
-0.0441281
0.515239
-0.0535444
0.491886
-0.0633558
0.468379
-0.0733281
0.44464
-0.0832991
0.420715
-0.0931172
0.396612
-0.102538
0.372311
-0.111384
0.347894
-0.119601
0.323677
-0.127228
0.299871
-0.133933
0.276454
-0.138836
0.253129
-0.142067
0.230905
-0.143538
0.209543
-0.143755
0.189285
-0.143294
0.171152
-0.138918
0.151859
-0.129919
0.131793
-0.114561
0.109623
-0.0876468
0.0798495
-0.0506655
0.0444725
-0.0179458
0.0146597
0.00116233
-0.00167801
0.0104837
-0.0114781
0.0137437
-0.0111199
0.0147784
-0.00852934
0.0141274
-0.00460794
0.0124588
-0.00129112
0.010048
0.00152027
0.00725164
0.00364654
0.00427156
0.00495058
0.00154037
0.00503962
0.00304371
0.00772638
0.916148
0.0135977
1.00319
0.0163865
0.966317
0.0182823
0.928626
0.0181529
0.886982
0.0181848
0.851223
0.0164751
0.816692
0.0144084
0.783434
0.0123402
0.751615
0.00956564
0.722096
0.00641729
0.693664
0.00247053
0.666903
-0.00278036
0.641567
-0.00883426
0.616924
-0.0153932
0.592806
-0.0227506
0.569577
-0.0309136
0.546787
-0.0399249
0.524251
-0.049719
0.50168
-0.0601634
0.478824
-0.0711161
0.455593
-0.0823184
0.431918
-0.0934926
0.407786
-0.104474
0.383292
-0.115062
0.358481
-0.124671
0.333286
-0.132665
0.307866
-0.139136
0.282925
-0.144607
0.2586
-0.148498
0.234796
-0.151748
0.212793
-0.153713
0.19125
-0.150275
0.167714
-0.141793
0.143377
-0.125677
0.115676
-0.095399
0.0793456
-0.0606094
0.0450599
-0.0329614
0.0168245
-0.0195835
0.00128179
-0.0141695
-0.00709196
-0.0115816
-0.014066
-0.00807254
-0.014629
-0.00399382
-0.0126081
-0.000977849
-0.00762391
0.000564588
-0.00283356
0.000965718
0.00111914
0.000791465
0.00382079
0.000272607
0.00546943
-0.00013115
0.00544338
0.00291256
0.00365991
0.912488
0.0109772
0.99587
0.0119907
0.965304
0.0148029
0.925814
0.0148634
0.886921
0.0162278
0.849859
0.017283
0.815636
0.016311
0.784406
0.0151365
0.75279
0.0135834
0.723649
0.0110328
0.696214
0.00793644
0.67
0.00455434
0.644949
0.000130271
0.621348
-0.00567751
0.598613
-0.0124106
0.57631
-0.0200883
0.554465
-0.0288037
0.532966
-0.0385924
0.511469
-0.0493006
0.489532
-0.0606109
0.466903
-0.0723214
0.443628
-0.0842689
0.419734
-0.0962927
0.395316
-0.108091
0.37028
-0.119235
0.344431
-0.129812
0.318442
-0.139514
0.292627
-0.147864
0.26695
-0.154496
0.241427
-0.158785
0.217083
-0.158576
0.191041
-0.151497
0.160635
-0.135642
0.127522
-0.107577
0.0876105
-0.0819091
0.053678
-0.0654884
0.0286392
-0.0602326
0.0115687
-0.0555542
-0.00339657
-0.049214
-0.0134322
-0.0415261
-0.0217539
-0.0324413
-0.0237138
-0.0230483
-0.022001
-0.0146084
-0.0160638
-0.00850492
-0.00893707
-0.00508578
-0.0023
-0.00336633
0.00210134
-0.00204524
0.00414835
-0.000889587
0.00428772
0.00202298
0.0131506
0.899338
0.0193444
0.989676
0.0166372
0.968011
0.0180188
0.924432
0.0183061
0.886634
0.0175227
0.850642
0.0179422
0.815217
0.0180538
0.784295
0.0168929
0.753951
0.0154178
0.725124
0.0139094
0.697723
0.0112843
0.672625
0.00742939
0.648804
0.00305258
0.625725
-0.00207776
0.603744
-0.00837019
0.582602
-0.01565
0.561745
-0.0240471
0.541363
-0.0338332
0.521255
-0.0447805
0.500479
-0.0567257
0.478848
-0.0693608
0.456263
-0.082537
0.43291
-0.096129
0.408908
-0.109722
0.383873
-0.122771
0.357479
-0.134575
0.330246
-0.144154
0.302207
-0.153234
0.27603
-0.160183
0.248375
-0.161383
0.218283
-0.158544
0.188201
-0.144922
0.147013
-0.122472
0.105071
-0.102897
0.0680359
-0.0949449
0.0457259
-0.0922621
0.0259564
-0.0879557
0.00726234
-0.0828114
-0.00854092
-0.0758967
-0.0203469