/*--------------------------------*- C++ -*----------------------------------*\
| =========                 |                                                 |
| \\      /  F ield         | OpenFOAM: The Open Source CFD Toolbox           |
|  \\    /   O peration     | Version:  v1912                                 |
|   \\  /    A nd           | Website:  www.openfoam.com                      |
|    \\/     M anipulation  |                                                 |
\*---------------------------------------------------------------------------*/
FoamFile
{
    version     2.0;
    format      ascii;
    class       volVectorField;
    location    "0.15";
    object      U;
}
// * * * * * * * * * * * * * * * * * * * * * * * * * * * * * * * * * * * * * //

dimensions      [0 1 -1 0 0 0 0];


internalField   nonuniform List<vector> 
6600
(
(39.8471 -0.0518437 0)
(40.0986 -0.0445493 1.01833e-20)
(40.1666 0.0535914 7.15376e-19)
(40.2091 0.164507 0)
(40.2659 0.274783 8.67945e-19)
(40.3227 0.406824 2.90373e-20)
(40.3748 0.561095 -3.22238e-20)
(40.4303 0.727925 -3.62768e-20)
(40.4602 0.90155 7.60764e-19)
(40.4991 1.10778 -1.17907e-19)
(40.5093 1.29021 0)
(40.5456 1.52111 -1.01261e-18)
(40.5612 1.76291 0)
(40.5294 2.02339 -1.13506e-18)
(40.4815 2.30182 -1.67258e-18)
(40.4528 2.56879 -9.25668e-19)
(40.3792 2.86077 0)
(40.3088 3.163 0)
(40.2126 3.4817 1.69511e-18)
(40.1059 3.81987 -1.58095e-18)
(39.9784 4.17651 -2.41891e-19)
(39.8412 4.55344 -9.43471e-19)
(39.6938 4.95477 -1.81213e-18)
(39.5297 5.37107 4.23221e-19)
(39.3282 5.80001 1.58266e-18)
(39.0985 6.21378 0)
(38.9334 6.69291 4.12672e-18)
(38.7241 7.23036 0)
(38.4354 7.77837 -2.18882e-18)
(38.1583 8.35954 -1.47345e-18)
(37.8915 9.00846 -3.33341e-19)
(37.6016 9.68546 -1.915e-18)
(37.2974 10.3938 -7.99163e-19)
(37 11.1541 1.69324e-18)
(36.6991 11.9731 3.42307e-19)
(36.3828 12.8399 2.09158e-18)
(36.0922 13.7589 4.02156e-18)
(35.8176 14.7608 4.08963e-18)
(35.553 15.8244 -3.04871e-18)
(35.321 16.9603 3.29309e-18)
(35.1002 18.1676 1.77979e-18)
(34.9108 19.4693 0)
(34.7514 20.8373 -5.7242e-19)
(34.6226 22.2985 1.37079e-18)
(34.563 23.8405 0)
(34.585 25.5386 -3.3572e-19)
(34.6025 27.1792 -1.05109e-18)
(34.9008 29.2703 0)
(33.3169 29.9631 0)
(23.8252 22.8868 -1.32437e-18)
(39.7349 -0.033769 5.9804e-19)
(40.1835 -0.0625346 -5.99087e-19)
(40.2404 0.069772 0)
(40.3018 0.203218 -1.11531e-20)
(40.3475 0.35582 7.57558e-19)
(40.3926 0.528089 2.67549e-20)
(40.4517 0.703635 -5.37539e-23)
(40.5042 0.875035 -3.29498e-20)
(40.559 1.0834 0)
(40.5818 1.2687 -1.29248e-18)
(40.6135 1.50995 -4.70275e-20)
(40.6243 1.72947 8.18882e-19)
(40.6296 1.94896 8.80063e-19)
(40.6442 2.17517 6.88128e-19)
(40.6439 2.43002 -4.24047e-21)
(40.6205 2.7081 9.73101e-20)
(40.5896 3.00104 -8.79581e-19)
(40.5364 3.31457 0)
(40.463 3.64451 0)
(40.3765 3.99497 1.63466e-18)
(40.2704 4.364 2.35207e-19)
(40.1479 4.75212 -1.27292e-18)
(40.0051 5.16609 -1.19435e-18)
(39.834 5.60025 -1.40848e-18)
(39.6702 6.08811 -1.20277e-18)
(39.5143 6.6604 -5.05907e-19)
(39.268 7.18831 -6.71718e-19)
(38.9981 7.70457 -6.91385e-19)
(38.786 8.29524 2.17907e-18)
(38.5649 8.92163 2.97285e-19)
(38.3127 9.55148 -2.88602e-18)
(38.0634 10.2331 2.69118e-18)
(37.8219 10.9615 1.9948e-18)
(37.56 11.7249 -2.51577e-18)
(37.2895 12.529 3.56502e-19)
(37.0517 13.387 -2.13915e-18)
(36.8268 14.3158 1.81841e-18)
(36.6125 15.2897 -1.44456e-18)
(36.4389 16.3267 -1.04673e-18)
(36.2848 17.4314 -1.18895e-18)
(36.1619 18.6054 0)
(36.075 19.8427 0)
(36.0413 21.1425 -2.04503e-19)
(36.1016 22.5384 1.53052e-19)
(36.2494 24.0071 -5.19558e-19)
(36.4736 25.6105 3.46646e-19)
(36.7186 27.1765 2.51658e-18)
(37.1543 29.0012 0)
(35.462 29.2936 -3.61575e-18)
(24.6083 21.6755 1.51624e-18)
(39.6617 -0.0247301 -5.58142e-20)
(40.3047 -0.0625532 6.1077e-19)
(40.3369 0.108502 5.84185e-19)
(40.4023 0.248233 -3.84303e-22)
(40.475 0.401237 -1.19019e-19)
(40.5486 0.571079 2.43881e-20)
(40.6116 0.75795 0)
(40.6807 0.960856 0)
(40.7171 1.15449 0)
(40.7629 1.38983 6.6997e-19)
(40.8032 1.61291 -4.15813e-20)
(40.8268 1.86536 -8.2435e-19)
(40.8579 2.14663 -4.84778e-19)
(40.8303 2.45453 9.63828e-19)
(40.8174 2.74433 5.54746e-19)
(40.783 3.05059 -9.0702e-20)
(40.7351 3.37082 1.75481e-18)
(40.6751 3.70949 -9.05159e-19)
(40.6008 4.06518 -1.07044e-18)
(40.514 4.4414 0)
(40.409 4.83804 -7.49307e-19)
(40.2969 5.25389 1.0228e-18)
(40.1789 5.69285 1.20865e-18)
(40.0485 6.15096 1.42623e-18)
(39.8654 6.58779 1.27727e-18)
(39.6762 7.03019 -1.63382e-19)
(39.5676 7.56772 -2.61666e-19)
(39.412 8.15401 -8.22871e-19)
(39.1711 8.73107 -3.52209e-19)
(38.9546 9.34057 1.37113e-18)
(38.7576 10.018 4.63538e-19)
(38.5423 10.7157 0)
(38.3196 11.4405 -2.3641e-18)
(38.1221 12.2137 6.48506e-19)
(37.9323 13.0363 1.42476e-18)
(37.7354 13.8944 2.07034e-18)
(37.581 14.7901 -1.10077e-18)
(37.4589 15.7565 -8.42689e-19)
(37.3616 16.769 3.93951e-19)
(37.3188 17.8377 0)
(37.3097 18.9551 -2.47614e-19)
(37.3587 20.1467 0)
(37.4695 21.3826 0)
(37.6336 22.6762 7.03424e-19)
(37.8947 24.0203 4.84738e-19)
(38.2543 25.4794 -1.61429e-18)
(38.6754 26.9818 -1.66243e-18)
(39.074 28.4543 0)
(37.1167 28.2553 -2.30577e-18)
(24.922 20.0864 2.51334e-18)
(39.627 0.00571393 -5.46211e-19)
(40.4413 -0.0341603 3.89414e-21)
(40.4819 0.164491 -5.99404e-19)
(40.5368 0.31647 -5.16365e-19)
(40.5902 0.497803 -6.56026e-19)
(40.647 0.697959 -2.92884e-19)
(40.7165 0.908425 -2.30184e-20)
(40.7767 1.09861 0)
(40.8457 1.34864 4.02142e-19)
(40.8733 1.55795 4.83236e-19)
(40.8967 1.81709 -3.53934e-20)
(40.9327 2.06686 -4.16205e-20)
(40.9544 2.30092 -3.65969e-19)
(40.9871 2.5585 -1.41909e-19)
(40.9768 2.85552 -3.63393e-20)
(40.9805 3.15951 -7.75282e-20)
(40.9586 3.48307 -4.73695e-20)
(40.9247 3.82784 1.02051e-18)
(40.8685 4.19048 1.40676e-18)
(40.803 4.57429 0)
(40.7199 4.97793 1.26811e-19)
(40.6224 5.40153 0)
(40.5049 5.84881 0)
(40.362 6.31932 -2.9453e-19)
(40.2462 6.85482 9.33655e-19)
(40.121 7.44988 1.05843e-18)
(39.9068 7.99527 -2.23523e-19)
(39.6912 8.5395 1.15637e-18)
(39.5441 9.16504 0)
(39.3888 9.82074 0)
(39.2073 10.4691 6.72065e-19)
(39.0426 11.1664 0)
(38.8963 11.9059 6.11063e-19)
(38.7338 12.6719 1.00567e-18)
(38.5787 13.4685 -1.8064e-18)
(38.4743 14.3114 -1.82932e-18)
(38.3937 15.2131 1.42523e-18)
(38.3377 16.1402 -5.32437e-19)
(38.3407 17.1146 3.00753e-19)
(38.3785 18.1351 3.4828e-19)
(38.4696 19.2036 -7.45324e-20)
(38.6157 20.3052 0)
(38.8337 21.4424 0)
(39.1678 22.6412 -5.99226e-19)
(39.6105 23.8782 -1.58343e-18)
(40.1348 25.2082 -6.01764e-19)
(40.6962 26.5807 -3.14236e-18)
(41.0563 27.7208 3.47011e-18)
(38.5985 27.0367 5.15616e-18)
(24.7735 18.2024 0)
(39.5832 0.0125413 -1.60707e-21)
(40.6158 -0.0131776 3.76273e-19)
(40.6428 0.234748 4.06733e-19)
(40.7162 0.365244 5.35348e-19)
(40.7785 0.557221 0)
(40.8566 0.759011 6.8404e-20)
(40.9188 0.957054 0)
(40.9919 1.1937 -2.01466e-20)
(41.0299 1.39401 -6.86104e-19)
(41.0947 1.66371 -4.79151e-19)
(41.1403 1.91123 2.81912e-20)
(41.1791 2.20181 3.31695e-20)
(41.2113 2.52585 -3.6914e-20)
(41.2011 2.85045 -3.95257e-19)
(41.2104 3.15723 -8.64303e-19)
(41.1764 3.50528 5.88168e-20)
(41.1456 3.85488 -1.13275e-18)
(41.1019 4.22659 8.77991e-20)
(41.0501 4.61323 -4.45597e-19)
(40.9817 5.02155 -2.39868e-19)
(40.9005 5.44957 7.73302e-19)
(40.815 5.89776 0)
(40.7289 6.3676 0)
(40.6349 6.85392 -4.0085e-19)
(40.479 7.30384 -6.12815e-19)
(40.3342 7.77453 7.03261e-19)
(40.2783 8.34129 -1.79755e-19)
(40.1771 8.95211 0)
(39.9907 9.54386 2.37182e-19)
(39.8408 10.1672 -2.64189e-19)
(39.7253 10.8611 -6.83065e-19)
(39.5946 11.5672 -8.07148e-19)
(39.4627 12.2904 3.41739e-19)
(39.3757 13.0545 -3.19115e-19)
(39.3077 13.8594 3.55092e-19)
(39.2423 14.6881 0)
(39.2331 15.5371 -3.89235e-19)
(39.2722 16.4422 5.783e-21)
(39.3476 17.3738 5.15777e-20)
(39.493 18.3403 -3.04953e-20)
(39.6857 19.3261 3.36895e-19)
(39.9505 20.3575 0)
(40.2932 21.4065 0)
(40.694 22.4755 -1.52286e-18)
(41.1932 23.5556 3.31723e-18)
(41.7812 24.7065 8.8851e-19)
(42.404 25.9658 1.97473e-18)
(42.5035 26.7195 -4.27051e-18)
(39.3466 25.4539 4.06533e-19)
(23.985 16.0073 -7.05407e-18)
(39.5741 0.0542348 3.22022e-19)
(40.7814 0.018172 -9.80185e-20)
(40.8167 0.329636 -4.15052e-19)
(40.8975 0.440378 1.46855e-19)
(40.9348 0.674342 0)
(41.0023 0.884575 2.42907e-19)
(41.0794 1.11801 -6.79214e-21)
(41.1383 1.33166 -1.75721e-19)
(41.2253 1.61871 3.05762e-19)
(41.2566 1.84885 0)
(41.295 2.1292 2.009e-20)
(41.3153 2.39147 1.13103e-19)
(41.3719 2.63726 -1.83747e-19)
(41.4039 2.93633 2.99835e-20)
(41.4067 3.26427 3.88172e-19)
(41.432 3.58986 -4.16124e-20)
(41.4254 3.9418 3.89754e-19)
(41.4121 4.31502 -5.90401e-20)
(41.3775 4.70739 7.5562e-20)
(41.3364 5.11896 1.8536e-19)
(41.2792 5.55015 2.68651e-19)
(41.2105 6.00268 -3.61943e-21)
(41.1245 6.48028 1.44849e-19)
(41.0152 6.98205 5.86817e-19)
(40.9513 7.5596 0)
(40.87 8.17716 -5.48432e-19)
(40.6997 8.74017 1.30579e-19)
(40.5379 9.29767 1.94813e-22)
(40.4589 9.93661 -8.44968e-20)
(40.3741 10.6007 1.7799e-19)
(40.2634 11.2463 -2.50004e-19)
(40.186 11.9369 5.08298e-19)
(40.1419 12.6648 0)
(40.082 13.408 0)
(40.0416 14.1675 0)
(40.0685 14.9609 0)
(40.1309 15.8013 3.06167e-19)
(40.2251 16.6461 -5.60968e-19)
(40.3913 17.5178 0)
(40.5978 18.4094 4.16931e-20)
(40.8662 19.3265 -2.26206e-19)
(41.1947 20.2446 -2.1255e-18)
(41.5917 21.1659 1.16523e-18)
(42.1101 22.1148 0)
(42.7378 23.0726 1.36474e-18)
(43.426 24.0978 -4.98722e-18)
(44.0296 25.1504 3.55287e-18)
(43.9061 25.5482 2.789e-18)
(39.7553 23.7168 1.04872e-17)
(22.516 13.5573 -7.85289e-18)
(39.5977 0.0724525 -3.17734e-19)
(40.9915 0.031167 -4.51049e-19)
(41.0209 0.399798 3.52311e-21)
(41.1145 0.493642 -1.47832e-19)
(41.1747 0.73759 6.97066e-20)
(41.2604 0.95258 -3.4696e-21)
(41.3312 1.17205 6.8442e-20)
(41.4177 1.43424 1.76425e-19)
(41.4489 1.64918 6.44343e-20)
(41.5291 1.94389 -4.46753e-21)
(41.5834 2.21875 -3.26276e-20)
(41.6495 2.53606 -9.91284e-20)
(41.6747 2.89749 1.57656e-19)
(41.7069 3.23388 0)
(41.7249 3.57642 0)
(41.7104 3.95982 1.16233e-20)
(41.7037 4.34057 1.95158e-19)
(41.6846 4.74433 0)
(41.6605 5.16038 2.08119e-20)
(41.6186 5.59931 -2.94921e-19)
(41.5676 6.05541 -2.94728e-19)
(41.5134 6.53029 4.30642e-20)
(41.4626 7.02378 0)
(41.4076 7.52833 -2.67351e-19)
(41.2826 7.98413 -5.57616e-20)
(41.1818 8.46917 6.22042e-20)
(41.1792 9.05113 0)
(41.1405 9.678 0)
(41.0122 10.2725 -2.53552e-19)
(40.929 10.8875 4.16073e-20)
(40.8942 11.571 3.07186e-19)
(40.8462 12.2578 -5.97531e-20)
(40.7995 12.95 1.21955e-20)
(40.8134 13.6724 -8.88685e-20)
(40.8603 14.426 4.09414e-19)
(40.916 15.1904 2.83134e-19)
(41.0309 15.9528 -2.37347e-19)
(41.2055 16.7538 4.34638e-19)
(41.4176 17.5608 -1.0998e-18)
(41.7031 18.3817 5.46625e-20)
(42.0367 19.1916 -2.75844e-19)
(42.4401 20.0198 1.10137e-18)
(42.9271 20.843 1.86325e-18)
(43.464 21.6535 -2.0698e-18)
(44.0766 22.4484 1.35705e-18)
(44.7737 23.3582 0)
(45.196 24.0826 2.23702e-18)
(44.5771 24.1578 3.53233e-18)
(39.1215 21.6093 -7.16786e-18)
(20.1623 10.8637 -2.2032e-18)
(39.6571 0.0921619 1.14083e-19)
(41.2088 0.0465737 1.70791e-19)
(41.2609 0.457856 9.4977e-22)
(41.3314 0.568101 1.67523e-21)
(41.3867 0.855845 -5.90978e-20)
(41.4514 1.08104 -3.07546e-20)
(41.5378 1.32853 -1.64816e-20)
(41.6087 1.56172 -3.34636e-20)
(41.7118 1.86985 -6.06512e-20)
(41.754 2.12462 5.41897e-20)
(41.8092 2.42524 -3.3563e-20)
(41.8266 2.69858 -3.5203e-20)
(41.9128 2.95911 8.76675e-20)
(41.9477 3.30585 -9.40695e-23)
(41.9841 3.64876 5.50993e-20)
(42.0329 3.99735 -6.28436e-20)
(42.0482 4.37952 -5.16895e-20)
(42.0648 4.77817 0)
(42.0595 5.19897 0)
(42.0492 5.63555 0)
(42.0251 6.09131 -2.9691e-21)
(41.9915 6.56724 -7.39719e-20)
(41.9438 7.0679 6.76733e-20)
(41.8713 7.59278 -5.42728e-21)
(41.8615 8.20237 0)
(41.8319 8.83754 0)
(41.7083 9.40796 -7.42333e-20)
(41.5951 9.96148 1.12277e-20)
(41.5844 10.5965 -9.78849e-20)
(41.5724 11.2538 1.15409e-19)
(41.5273 11.8769 2.76946e-20)
(41.5266 12.5323 2.84027e-19)
(41.5742 13.2175 -9.87429e-20)
(41.6055 13.9068 4.68489e-19)
(41.6576 14.5947 -2.45355e-19)
(41.7868 15.2992 -8.5941e-20)
(41.96 16.0399 1.49565e-19)
(42.1603 16.7648 4.91264e-19)
(42.4361 17.4955 4.48209e-19)
(42.7469 18.2198 8.43273e-19)
(43.1151 18.9522 -2.54254e-19)
(43.5408 19.6617 1.72393e-18)
(44.0163 20.3448 -1.9175e-18)
(44.6046 21.0263 0)
(45.2998 21.7155 0)
(46.0265 22.5214 0)
(46.2259 22.8768 0)
(45.0066 22.6412 0)
(37.9807 19.3832 -4.10362e-18)
(16.9357 8.04164 6.74175e-18)
(39.7373 0.114463 -1.14794e-19)
(41.4411 0.0568626 0)
(41.5111 0.50379 0)
(41.6121 0.601024 -2.44595e-21)
(41.6754 0.901374 -1.3792e-20)
(41.7704 1.12585 3.41819e-20)
(41.832 1.36558 -5.21821e-20)
(41.9243 1.63492 3.35702e-20)
(41.9919 1.88115 -1.25615e-19)
(42.0724 2.18426 -6.00407e-20)
(42.1621 2.50046 6.45259e-20)
(42.2516 2.8522 -1.95389e-19)
(42.2942 3.24218 -2.06269e-19)
(42.3686 3.57577 0)
(42.4059 3.95845 -5.65804e-20)
(42.4211 4.37352 7.81146e-20)
(42.4466 4.78277 2.66399e-22)
(42.4623 5.21576 2.36845e-19)
(42.467 5.66168 -2.91738e-19)
(42.4597 6.1275 0)
(42.4454 6.60937 0)
(42.4263 7.10681 -2.03704e-19)
(42.4116 7.61896 1.72333e-19)
(42.3951 8.13505 2.75035e-19)
(42.3049 8.595 5.27913e-20)
(42.2405 9.07667 -2.51708e-19)
(42.2842 9.65367 3.07306e-19)
(42.3084 10.2826 -3.85817e-19)
(42.2371 10.8658 1.79694e-19)
(42.2116 11.4504 -1.5898e-19)
(42.2472 12.0997 9.5559e-20)
(42.2725 12.7458 -2.31232e-19)
(42.2912 13.3814 2.85361e-19)
(42.3756 14.0309 -3.63254e-19)
(42.5093 14.7018 0)
(42.6515 15.3738 -4.44299e-19)
(42.8416 16.0193 -4.11257e-19)
(43.0967 16.6842 1.48197e-19)
(43.3808 17.3378 1.12263e-18)
(43.7307 17.9904 -1.0825e-18)
(44.123 18.6071 -2.2656e-19)
(44.5715 19.2185 -2.01338e-18)
(45.1073 19.8133 4.7766e-18)
(45.6853 20.3782 3.53631e-19)
(46.3338 20.9606 4.11109e-19)
(46.832 21.4572 -1.96381e-18)
(46.7273 21.6056 0)
(44.483 20.8708 3.64926e-18)
(35.3546 16.7097 -1.94831e-18)
(12.6012 5.07057 0)
(39.8355 0.13739 -4.4115e-22)
(41.7141 0.0660478 -1.52556e-22)
(41.7832 0.565934 1.40146e-19)
(41.877 0.644914 0)
(41.9139 0.995609 2.66735e-21)
(41.9989 1.20875 1.27564e-19)
(42.1062 1.48994 0)
(42.1917 1.76282 -1.83754e-19)
(42.2958 2.06423 1.36885e-19)
(42.3844 2.35546 -1.21416e-20)
(42.4271 2.64111 -2.96549e-19)
(42.4903 2.9405 1.41734e-20)
(42.5907 3.2327 1.38062e-19)
(42.6561 3.61561 0)
(42.7262 3.96661 0)
(42.8031 4.33588 0)
(42.8504 4.74447 3.24731e-19)
(42.9007 5.16756 -2.39009e-19)
(42.9304 5.61198 5.57004e-19)
(42.9568 6.07046 -5.41479e-20)
(42.9694 6.55015 1.22841e-19)
(42.9743 7.0451 1.3538e-19)
(42.9673 7.56188 -6.6286e-19)
(42.9339 8.10156 -5.24703e-19)
(42.9724 8.72673 0)
(42.9974 9.37348 2.62891e-19)
(42.92 9.94414 -7.13062e-19)
(42.8394 10.4746 3.85835e-19)
(42.8816 11.0824 -2.32979e-19)
(42.933 11.719 1.36017e-19)
(42.9368 12.3048 -1.86698e-19)
(42.9851 12.9019 7.298e-19)
(43.0969 13.5206 -7.4872e-19)
(43.1951 14.1357 1.12296e-18)
(43.2993 14.7319 4.6538e-19)
(43.4811 15.3228 -1.10663e-18)
(43.7131 15.9422 1.41899e-18)
(43.9586 16.5311 -9.30828e-19)
(44.2749 17.1088 3.30628e-20)
(44.6161 17.6557 0)
(45.0022 18.1995 1.61129e-18)
(45.4449 18.7096 1.13052e-18)
(45.9136 19.1714 1.38239e-19)
(46.4809 19.6247 -3.24262e-18)
(47.1857 20.1421 -1.17404e-19)
(47.426 20.3266 -2.30182e-18)
(46.9222 20.2091 0)
(43.4038 18.8368 3.7531e-18)
(32.0573 13.7995 -6.31599e-18)
(7.51388 2.04368 0)
(39.9512 0.167216 0)
(42.0082 0.0861159 0)
(42.0705 0.592085 -2.75929e-20)
(42.1778 0.654895 7.09918e-21)
(42.2467 0.995083 -1.68187e-19)
(42.3569 1.23906 -1.30794e-19)
(42.4396 1.47858 0)
(42.5397 1.76406 1.84176e-19)
(42.635 2.04784 -3.14353e-19)
(42.734 2.34869 0)
(42.8859 2.71071 5.11885e-19)
(42.9878 3.07198 -7.69403e-20)
(43.0589 3.46216 3.13029e-20)
(43.1679 3.81109 -3.49003e-20)
(43.257 4.24306 0)
(43.3115 4.68359 0)
(43.3736 5.11816 -1.25537e-19)
(43.4271 5.57536 -2.74409e-19)
(43.4679 6.04613 1.12888e-19)
(43.4984 6.53548 -4.32907e-20)
(43.5209 7.04109 9.83577e-20)
(43.5376 7.55787 -5.58634e-20)
(43.5553 8.08438 4.27981e-19)
(43.5702 8.60727 1.70902e-19)
(43.5193 9.07619 -3.37408e-19)
(43.4768 9.54398 -4.95372e-19)
(43.5487 10.0982 2.78373e-19)
(43.6289 10.715 4.82787e-19)
(43.6032 11.2769 0)
(43.6067 11.8105 0)
(43.6838 12.4036 0)
(43.7609 12.9961 -5.2602e-19)
(43.8134 13.5626 -3.89388e-19)
(43.9211 14.1232 -3.68624e-19)
(44.0987 14.6951 6.11668e-19)
(44.2828 15.2672 7.44366e-19)
(44.4915 15.7904 -3.09818e-19)
(44.7658 16.3143 1.04221e-18)
(45.0567 16.8124 -6.09888e-19)
(45.3985 17.3039 -8.19821e-19)
(45.7788 17.7433 -1.00851e-18)
(46.193 18.1551 1.12447e-18)
(46.6994 18.552 0)
(47.3121 18.9801 1.73854e-18)
(47.685 19.2046 -9.63747e-19)
(47.6422 19.1999 1.27089e-18)
(46.3053 18.6603 0)
(40.9678 16.425 -1.78773e-18)
(27.0252 10.2515 1.03171e-18)
(4.43462 0.370095 0)
(40.1145 0.178646 -1.17648e-19)
(42.3163 0.0951188 0)
(42.385 0.625027 -2.77868e-19)
(42.4558 0.690919 1.92723e-19)
(42.5231 1.06129 1.64317e-19)
(42.6119 1.27236 -7.30201e-21)
(42.7595 1.57843 8.12657e-21)
(42.8658 1.84654 0)
(42.9907 2.15852 3.03241e-19)
(43.0984 2.45575 -2.31605e-19)
(43.1614 2.74238 -2.14989e-19)
(43.2752 3.06283 2.69654e-19)
(43.4212 3.40166 -1.93591e-19)
(43.5227 3.79538 -4.94704e-20)
(43.6245 4.14737 2.81477e-20)
(43.7311 4.54108 0)
(43.8174 4.97223 -3.04549e-19)
(43.9043 5.41714 3.50743e-19)
(43.972 5.88416 6.87482e-20)
(44.0361 6.36352 -2.03979e-21)
(44.0862 6.86396 6.79106e-20)
(44.1296 7.37587 0)
(44.1608 7.9055 9.38845e-20)
(44.163 8.45373 3.85123e-19)
(44.2275 9.07083 4.26928e-19)
(44.3041 9.72574 4.98033e-19)
(44.2694 10.3015 0)
(44.1978 10.8049 -3.43361e-19)
(44.2606 11.3686 -7.59319e-19)
(44.3536 11.9746 4.08072e-19)
(44.3804 12.5175 -8.78909e-19)
(44.4353 13.0445 -4.2661e-19)
(44.5687 13.5849 7.4782e-19)
(44.7021 14.1207 -2.69473e-19)
(44.817 14.6278 -6.16932e-19)
(44.996 15.1027 -3.09469e-19)
(45.2339 15.6008 -4.43531e-19)
(45.4689 16.062 0)
(45.7635 16.5037 -7.46623e-19)
(46.0751 16.8929 1.65517e-18)
(46.4126 17.2693 1.02138e-18)
(46.8136 17.6169 -1.21249e-18)
(47.2431 17.93 1.53187e-18)
(47.7333 18.2146 -7.78219e-19)
(47.8562 18.2584 2.03936e-18)
(47.4561 18.0414 -1.10429e-20)
(44.9365 16.9593 0)
(37.3744 13.7306 3.61994e-18)
(21.1212 6.62996 -3.04751e-18)
(2.07068 -0.250926 -1.08318e-18)
(40.2456 0.172981 1.17888e-19)
(42.6362 0.0759386 -1.8584e-19)
(42.6944 0.583778 1.61311e-19)
(42.7833 0.651775 -1.89426e-19)
(42.8655 1.00459 -1.41756e-19)
(42.9951 1.2288 -9.26051e-21)
(43.0789 1.46352 5.27782e-21)
(43.2415 1.76964 0)
(43.3612 2.05318 -2.48344e-19)
(43.5153 2.39153 3.82254e-19)
(43.7067 2.74818 0)
(43.8366 3.11878 -2.41319e-20)
(43.9352 3.50713 3.85641e-21)
(44.098 3.88793 2.55626e-19)
(44.2503 4.36033 -3.72184e-19)
(44.356 4.81718 -1.7512e-21)
(44.4605 5.27559 4.93783e-20)
(44.554 5.75712 0)
(44.6329 6.25363 -1.74258e-19)
(44.7019 6.76628 3.8999e-19)
(44.7579 7.29347 -4.43492e-20)
(44.8039 7.82988 0)
(44.845 8.37285 0)
(44.8801 8.90617 -1.81904e-19)
(44.8648 9.38979 8.15187e-20)
(44.8217 9.8411 -5.97225e-19)
(44.8866 10.3565 2.1492e-19)
(45.0048 10.9539 -1.22378e-19)
(45.0148 11.5025 3.74668e-19)
(45.0127 11.9828 1.66134e-19)
(45.0877 12.5082 4.97014e-19)
(45.1864 13.0424 -5.45351e-19)
(45.2418 13.5434 3.52121e-19)
(45.3241 14.0187 -3.48577e-19)
(45.4957 14.4901 -4.01172e-19)
(45.682 14.9722 -4.21385e-19)
(45.8619 15.3907 0)
(46.1032 15.7938 1.01997e-18)
(46.3509 16.1565 -3.78987e-19)
(46.6287 16.5147 -9.01755e-19)
(46.9503 16.8213 1.07244e-18)
(47.2857 17.0901 -2.74672e-20)
(47.7858 17.3985 -7.5594e-19)
(47.9799 17.4922 -1.87869e-20)
(47.8539 17.4052 -1.0909e-18)
(46.5569 16.8525 -2.59939e-18)
(42.2301 15.152 1.4578e-18)
(31.7441 11.0015 0)
(11.8325 3.04192 -1.91976e-18)
(0.0549319 -0.188487 3.69957e-18)
(40.4134 0.205979 3.59695e-22)
(42.9325 0.0586893 1.86843e-19)
(43.0363 0.582049 -6.29286e-20)
(43.1014 0.627342 -2.09738e-21)
(43.155 1.01049 1.42028e-19)
(43.2784 1.19087 0)
(43.4408 1.50772 0)
(43.5806 1.77119 -7.98649e-21)
(43.7535 2.07436 4.32041e-19)
(43.8694 2.36198 -1.54212e-19)
(43.9875 2.6732 1.27569e-20)
(44.1704 3.00816 -2.91601e-20)
(44.3627 3.3773 1.30856e-19)
(44.4936 3.76702 -1.31967e-19)
(44.6328 4.12576 5.38334e-19)
(44.7772 4.54913 -1.18711e-19)
(44.9127 4.99973 1.38049e-19)
(45.0415 5.46807 3.70417e-20)
(45.151 5.95954 -3.87809e-19)
(45.253 6.46447 -2.53627e-19)
(45.3386 6.98728 1.7763e-21)
(45.415 7.51848 -6.37687e-20)
(45.4772 8.06341 0)
(45.5098 8.62179 -2.67146e-19)
(45.5777 9.22765 1.39481e-21)
(45.6838 9.88614 5.09439e-20)
(45.684 10.4805 6.44632e-20)
(45.5946 10.9676 1.63564e-19)
(45.6309 11.4796 0)
(45.7308 12.0541 1.02685e-19)
(45.7589 12.5659 5.68759e-19)
(45.7816 13.0319 5.06949e-19)
(45.8852 13.4943 -2.58615e-19)
(46.0206 13.956 5.40391e-19)
(46.1189 14.395 -4.41088e-19)
(46.2479 14.7718 -2.66536e-19)
(46.4463 15.1638 0)
(46.631 15.5193 -6.83957e-19)
(46.8579 15.86 -4.294e-19)
(47.1041 16.136 4.79627e-19)
(47.3534 16.3903 -5.65492e-19)
(47.758 16.6931 6.32959e-19)
(47.9364 16.8175 0)
(47.9027 16.8103 4.6489e-19)
(47.2132 16.5296 0)
(44.6844 15.5728 6.36813e-19)
(37.94 13.0435 -1.43534e-18)
(23.856 7.72356 8.04485e-19)
(5.35647 1.13051 0)
(-1.02977 -0.0693877 2.41236e-19)
(40.543 0.14576 5.43803e-23)
(43.1935 0.0539693 6.29305e-23)
(43.3067 0.530638 6.46933e-20)
(43.4196 0.551545 3.25064e-22)
(43.4996 0.896781 2.79853e-21)
(43.6413 1.075 4.36467e-22)
(43.779 1.32118 -4.85833e-22)
(43.9447 1.60321 1.18736e-21)
(44.1267 1.8871 -1.60823e-19)
(44.3462 2.22207 -3.42372e-21)
(44.5714 2.57569 -1.90654e-21)
(44.7252 2.93896 4.35872e-21)
(44.8918 3.33188 1.47203e-19)
(45.1219 3.74959 -1.74944e-19)
(45.339 4.23513 -2.15021e-19)
(45.5031 4.70567 1.18614e-19)
(45.66 5.19418 -1.33521e-19)
(45.8006 5.70516 -5.95007e-21)
(45.923 6.23196 -6.89492e-21)
(46.0313 6.7744 0)
(46.1196 7.33036 -9.1916e-21)
(46.1888 7.89529 -4.93542e-21)
(46.2436 8.46382 5.51756e-21)
(46.2836 9.02105 0)
(46.2915 9.53876 0)
(46.2325 9.99457 2.39416e-19)
(46.2452 10.4684 0)
(46.3656 11.0419 -1.63777e-19)
(46.3987 11.5934 0)
(46.363 12.0373 7.72697e-21)
(46.3854 12.4971 -2.67587e-19)
(46.4663 12.9754 1.89656e-20)
(46.5061 13.428 -3.59404e-19)
(46.5293 13.8387 3.20227e-20)
(46.6437 14.2181 1.9807e-19)
(46.8011 14.6257 3.01122e-19)
(46.9242 14.969 -1.03954e-20)
(47.0969 15.2884 0)
(47.2762 15.5514 -6.99572e-21)
(47.4595 15.814 8.11712e-21)
(47.7623 16.0931 0)
(47.9564 16.27 -9.89919e-21)
(47.9849 16.3015 -4.8014e-20)
(47.6635 16.2273 -4.08918e-19)
(46.0705 15.671 -8.32386e-21)
(41.4716 14.0407 0)
(31.1514 10.3243 0)
(13.2756 3.80005 1.10113e-19)
(1.47829 0.373818 -1.0904e-19)
(-1.59433 -0.0653939 2.45043e-19)
(40.6767 0.124116 1.37296e-19)
(43.462 0.0107921 1.53307e-19)
(43.5734 0.47975 8.54298e-20)
(43.6674 0.460854 1.01378e-19)
(43.7557 0.82213 1.08213e-19)
(43.9129 0.980649 -1.29751e-19)
(44.1045 1.25484 0)
(44.2935 1.51513 0)
(44.4877 1.77467 1.06765e-19)
(44.6494 2.06418 3.42331e-21)
(44.8386 2.37904 -1.38471e-19)
(45.1031 2.71557 -9.88808e-21)
(45.3328 3.09343 -1.91221e-19)
(45.5143 3.47827 2.25008e-19)
(45.6912 3.85532 2.86936e-19)
(45.8963 4.30227 0)
(46.0832 4.77468 0)
(46.2617 5.27305 5.9506e-21)
(46.42 5.79548 6.89308e-21)
(46.5654 6.33433 -2.96567e-19)
(46.6869 6.89276 9.18942e-21)
(46.7929 7.45652 0)
(46.8774 8.03088 0)
(46.9325 8.61209 -6.06212e-20)
(46.9847 9.21582 -2.9542e-19)
(47.0909 9.88538 8.64905e-20)
(47.123 10.5258 0)
(47.0062 11.0301 -2.15481e-19)
(46.9641 11.5008 0)
(47.0152 12.0454 -7.7243e-21)
(47.0234 12.5439 0)
(46.9914 12.973 0)
(47.0127 13.3687 9.88674e-20)
(47.1112 13.7623 1.14911e-19)
(47.1848 14.1588 0)
(47.2372 14.4682 0)
(47.3637 14.778 1.03895e-20)
(47.4823 15.0507 0)
(47.6196 15.3264 6.991e-21)
(47.8316 15.5736 -2.68343e-19)
(48.0173 15.8007 2.84169e-19)
(48.062 15.8621 2.05996e-20)
(47.8658 15.8755 1.20423e-20)
(46.7702 15.5622 -4.56827e-19)
(43.4649 14.4394 -2.62415e-19)
(35.8135 11.7825 1.49804e-18)
(21.7094 6.80363 -6.7043e-19)
(5.22047 1.40614 -7.6881e-19)
(-0.997676 0.180842 6.35195e-19)
(-1.75669 -0.031127 0)
(40.7235 0.0520497 -1.35042e-19)
(43.7165 -0.0662652 1.83166e-19)
(43.7902 0.352251 -8.38535e-20)
(43.9095 0.316579 1.20999e-19)
(44.045 0.620342 -1.14775e-19)
(44.2126 0.757491 1.3353e-19)
(44.383 0.973569 1.05586e-20)
(44.5966 1.22616 -1.17559e-20)
(44.8532 1.51673 -9.21467e-20)
(45.1401 1.80745 -1.62098e-20)
(45.3944 2.13235 1.47236e-19)
(45.6016 2.51067 3.8911e-19)
(45.8614 2.89546 -2.55017e-19)
(46.1541 3.33131 -2.05796e-19)
(46.4234 3.82006 -9.48377e-19)
(46.6617 4.30574 4.45941e-20)
(46.8881 4.82822 -4.97469e-20)
(47.1056 5.37153 5.03901e-19)
(47.2917 5.93737 6.98194e-20)
(47.4446 6.52417 2.18216e-19)
(47.5702 7.1256 0)
(47.666 7.73889 0)
(47.7331 8.35385 0)
(47.7699 8.96081 0)
(47.7795 9.53974 2.9357e-19)
(47.7019 10.0413 -7.57523e-19)
(47.6266 10.4994 0)
(47.6934 11.0546 6.98146e-19)
(47.7298 11.6308 0)
(47.6514 12.0732 0)
(47.5775 12.4862 -6.8909e-19)
(47.5857 12.9138 3.75039e-19)
(47.5952 13.3319 -8.45281e-19)
(47.5516 13.7064 2.44625e-19)
(47.5625 14.007 0)
(47.6618 14.3452 0)
(47.7257 14.6345 3.61953e-19)
(47.8177 14.9069 -1.23731e-18)
(47.9592 15.1275 0)
(48.1108 15.3958 -7.65414e-19)
(48.1597 15.4859 1.15727e-18)
(48.0232 15.5411 -1.40802e-18)
(47.2516 15.3719 7.98167e-19)
(44.8713 14.62 -9.29658e-19)
(39.0434 12.6785 2.34798e-18)
(27.5497 8.79569 -2.05893e-18)
(9.48288 2.78301 1.3252e-18)
(0.834341 0.610115 -2.95217e-18)
(-2.05287 0.129495 3.48634e-18)
(-1.62134 0.0624924 -2.24349e-18)
(40.6828 0.0245199 -3.19285e-19)
(43.8666 -0.1354 2.49766e-20)
(43.9977 0.220372 0)
(44.1057 0.175414 -2.2068e-19)
(44.2379 0.491974 -5.65019e-19)
(44.4258 0.589882 1.88949e-20)
(44.6537 0.837596 0)
(44.9063 1.03454 0)
(45.1153 1.26196 -3.21138e-20)
(45.3393 1.5481 3.57738e-20)
(45.6305 1.83827 -7.24918e-19)
(45.9573 2.14049 4.68665e-19)
(46.2422 2.5147 4.57607e-19)
(46.4993 2.89943 -5.9748e-19)
(46.7667 3.2955 6.31831e-19)
(47.036 3.76423 1.00443e-19)
(47.2864 4.25857 -1.0805e-18)
(47.5154 4.78903 -1.63439e-18)
(47.7304 5.3523 0)
(47.9299 5.93899 7.61327e-19)
(48.0975 6.55066 8.79272e-19)
(48.2402 7.17076 0)
(48.3484 7.80238 -1.15784e-18)
(48.4188 8.43659 0)
(48.4576 9.07169 0)
(48.5318 9.76635 7.5519e-19)
(48.5821 10.4802 5.02299e-19)
(48.4563 11.0608 1.09759e-18)
(48.3029 11.5316 0)
(48.2359 12.0569 0)
(48.1889 12.5587 3.27122e-19)
(48.0955 12.9801 4.01604e-19)
(47.9929 13.3315 1.38818e-18)
(47.9958 13.6522 4.47501e-21)
(48.0388 14.0112 6.88908e-21)
(48.0172 14.2788 -1.30355e-18)
(48.0544 14.5269 -1.30789e-20)
(48.1325 14.7359 1.64905e-18)
(48.2469 15.0343 9.22182e-19)
(48.3025 15.1496 5.15252e-19)
(48.1935 15.2166 1.24197e-18)
(47.6211 15.1501 2.71642e-20)
(45.8349 14.6492 -1.60016e-18)
(41.1522 13.1607 -9.15431e-19)
(31.3794 9.94193 -2.58401e-18)
(14.8754 4.53044 2.8926e-18)
(2.94258 1.18359 -1.28951e-18)
(-1.41064 0.462336 0)
(-2.41109 0.229987 0)
(-1.42229 0.143505 4.41339e-19)
(40.5874 -0.0126067 9.8769e-19)
(43.9473 -0.196725 4.01312e-19)
(44.1079 0.0618192 -4.33395e-19)
(44.2493 -0.00220262 1.56081e-20)
(44.4096 0.219856 1.12601e-18)
(44.6207 0.279371 -2.0177e-20)
(44.8339 0.477901 0)
(45.1011 0.678285 -9.37867e-19)
(45.4373 0.894953 -3.4737e-20)
(45.774 1.14234 -2.4018e-21)
(46.0683 1.45829 1.54977e-18)
(46.3756 1.81977 -7.97914e-19)
(46.7198 2.17444 3.89216e-21)
(47.0952 2.60928 5.20175e-19)
(47.4455 3.09615 0)
(47.7744 3.59633 0)
(48.0787 4.13991 8.35556e-19)
(48.3808 4.72012 1.27301e-18)
(48.6634 5.3326 0)
(48.9035 5.97706 -7.58901e-19)
(49.0824 6.64237 -8.763e-19)
(49.2214 7.33118 -2.6989e-19)
(49.3147 8.02591 1.65309e-19)
(49.3577 8.71694 1.11972e-18)
(49.3547 9.39249 3.92227e-19)
(49.2712 10.0034 4.47331e-19)
(49.1025 10.5085 -1.44969e-18)
(49.05 11.0666 -1.06698e-18)
(49.0448 11.6875 1.31667e-18)
(48.9241 12.1768 -1.46121e-18)
(48.7353 12.5848 0)
(48.6037 12.9752 0)
(48.5419 13.3553 2.99411e-20)
(48.4407 13.7142 -1.07127e-18)
(48.3171 13.9506 1.22467e-18)
(48.3136 14.203 2.04649e-18)
(48.339 14.4267 -7.52907e-19)
(48.4091 14.7218 -1.6605e-18)
(48.4708 14.8441 -1.85826e-18)
(48.3649 14.9151 -1.09311e-18)
(47.901 14.9057 -2.0757e-20)
(46.4894 14.5885 1.40137e-18)
(42.6452 13.4254 0)
(34.1456 10.6936 9.06657e-19)
(19.1457 5.8506 1.01745e-18)
(5.32366 1.84519 1.13188e-18)
(-0.51891 0.729768 3.80138e-18)
(-2.35829 0.433235 -1.4161e-18)
(-2.42989 0.333136 0)
(-1.21977 0.183534 0)
(40.4227 -0.0355215 9.24963e-21)
(43.9854 -0.27834 -7.61023e-19)
(44.1961 -0.0405572 4.46791e-19)
(44.336 -0.141403 -1.02853e-18)
(44.4884 0.0724801 -6.13876e-19)
(44.7347 0.0716799 -1.17521e-21)
(44.9894 0.260432 2.47689e-20)
(45.2736 0.390086 8.73828e-19)
(45.5554 0.579677 6.91672e-20)
(45.8649 0.808424 8.75909e-20)
(46.2317 1.02702 -7.72022e-19)
(46.6225 1.30081 -1.15979e-19)
(47.0028 1.6683 -1.17158e-18)
(47.3441 2.02665 -1.39414e-18)
(47.7223 2.42493 2.05899e-19)
(48.0874 2.89977 -2.29667e-19)
(48.4342 3.4161 0)
(48.7604 3.9802 -1.36052e-18)
(49.0376 4.59128 0)
(49.2983 5.23577 0)
(49.5373 5.91933 0)
(49.738 6.62179 -5.97838e-19)
(49.8891 7.34287 1.95036e-18)
(49.9879 8.07054 -1.4617e-18)
(50.0385 8.79864 0)
(50.0658 9.54749 -4.94188e-19)
(50.1229 10.3585 -1.77781e-18)
(49.9997 11.0844 -2.59789e-18)
(49.7481 11.6305 -1.98925e-18)
(49.5067 12.1779 1.37733e-18)
(49.338 12.7048 -1.67107e-18)
(49.1663 13.1479 9.2722e-19)
(48.9216 13.4943 2.09452e-18)
(48.743 13.7335 0)
(48.7015 14.0192 1.31736e-18)
(48.6302 14.2356 -2.73421e-18)
(48.6091 14.4675 -1.76319e-20)
(48.6472 14.5766 1.62705e-18)
(48.5115 14.6285 9.47444e-19)
(48.1271 14.6525 0)
(46.9703 14.4494 1.24232e-18)
(43.8182 13.5494 -1.43119e-18)
(36.2934 11.205 3.21572e-18)
(22.3769 6.83375 0)
(7.51147 2.55287 -4.00747e-18)
(0.725086 1.13738 1.11198e-18)
(-1.90558 0.815277 -1.24523e-18)
(-2.69385 0.724117 -1.39079e-18)
(-2.32703 0.548323 3.09828e-18)
(-1.04666 0.233551 1.25568e-21)
(40.1778 -0.10474 -6.84306e-19)
(43.9379 -0.389577 7.75441e-19)
(44.186 -0.220275 -8.89885e-19)
(44.3252 -0.383945 2.06294e-18)
(44.4835 -0.221227 -1.24542e-18)
(44.7682 -0.270448 8.88991e-20)
(45.0461 -0.140563 -8.93021e-19)
(45.3666 -0.0254843 0)
(45.7737 0.116905 -1.1969e-18)
(46.1515 0.310071 1.52274e-18)
(46.5323 0.593931 7.39104e-21)
(46.9332 0.887751 -1.21812e-19)
(47.3569 1.18273 1.16766e-18)
(47.8426 1.59893 -8.04043e-20)
(48.2884 2.06601 1.53359e-18)
(48.7264 2.55982 2.45742e-19)
(49.144 3.11422 0)
(49.5619 3.72139 1.35441e-18)
(49.9533 4.37916 3.44176e-18)
(50.3122 5.08201 0)
(50.6172 5.82568 0)
(50.8337 6.61325 0)