/*--------------------------------*- C++ -*----------------------------------*\
| =========                 |                                                 |
| \\      /  F ield         | OpenFOAM: The Open Source CFD Toolbox           |
|  \\    /   O peration     | Version:  v1912                                 |
|   \\  /    A nd           | Website:  www.openfoam.com                      |
|    \\/     M anipulation  |                                                 |
\*---------------------------------------------------------------------------*/
FoamFile
{
    version     2.0;
    format      ascii;
    class       volScalarField;
    location    "0.34";
    object      p;
}
// * * * * * * * * * * * * * * * * * * * * * * * * * * * * * * * * * * * * * //

dimensions      [0 2 -2 0 0 0 0];


internalField   nonuniform List<scalar> 
6600
(
167.664
163.537
161.711
160.587
159.769
159.117
158.787
158.76
158.889
159.13
159.514
160.054
160.763
161.635
162.679
163.896
165.327
166.978
168.812
170.787
172.899
175.22
177.753
180.5
183.258
186.074
188.942
191.812
194.593
197.096
199.187
200.773
201.719
201.92
201.202
199.27
195.467
189.285
180.525
168.854
153.679
134.273
109.965
79.9992
43.6964
0.10603
-51.4376
-109.945
-180.735
-257.934
165.269
161.641
160.228
159.03
158.08
157.409
157.083
156.886
156.79
156.831
157.031
157.393
157.87
158.413
159.043
159.722
160.591
161.646
162.881
164.199
165.552
166.986
168.476
170.237
172.05
173.785
175.345
176.716
177.816
178.577
178.715
178.102
176.569
174.004
170.268
165.098
157.92
148.137
135.438
119.482
99.7125
75.3117
45.6216
9.95152
-32.3238
-82.1307
-140.155
-205.62
-281.124
-362.219
162.367
159.006
158.004
156.895
156.043
155.442
155.027
154.682
154.405
154.261
154.224
154.301
154.522
154.829
155.2
155.586
155.889
156.253
156.753
157.351
157.972
158.607
159.221
159.718
160.245
160.678
160.836
160.624
159.951
158.689
156.727
153.876
149.876
144.472
137.577
128.979
118.165
104.473
87.5731
67.1267
42.6059
13.1763
-21.7934
-62.9463
-110.89
-166.534
-230.331
-301.352
-379.013
-458.921
159.311
156.123
155.512
154.433
153.653
153.109
152.582
152.097
151.674
151.374
151.18
150.999
150.824
150.693
150.6
150.694
150.704
150.559
150.324
150.084
149.821
149.492
149.007
148.379
147.529
146.474
145.068
143.153
140.598
137.297
133.061
127.732
121.115
112.857
102.789
90.5984
75.9605
58.3733
37.3
12.2978
-17.0528
-51.463
-91.4161
-137.501
-190.358
-250.781
-318.979
-393.313
-471.519
-547.862
156.124
153.188
152.963
151.792
150.983
150.374
149.757
149.127
148.514
147.953
147.469
147.059
146.624
146.114
145.501
144.853
144.288
143.672
142.867
141.837
140.643
139.325
137.799
135.798
133.451
130.789
127.651
123.893
119.34
113.803
107.238
99.4216
90.0741
78.8622
65.5641
49.9196
31.49
9.87784
-15.2601
-44.4678
-78.2959
-117.13
-161.356
-211.514
-268.132
-331.838
-402.719
-478.796
-556.33
-627.669
152.912
150.116
150.148
148.794
148.075
147.323
146.49
145.67
144.925
144.146
143.255
142.327
141.383
140.41
139.394
138.22
136.843
135.403
133.842
132.008
129.868
127.34
124.588
121.385
117.627
113.239
108.237
102.47
95.812
88.0454
79.0363
68.5868
56.4799
42.4054
25.9581
6.8996
-15.0494
-40.2888
-69.2098
-102.238
-139.796
-182.206
-229.785
-282.887
-341.873
-407.243
-479.149
-555.604
-631.253
-695.778
149.711
146.879
147.058
145.364
144.837
143.914
142.845
141.744
140.692
139.593
138.432
137.121
135.623
133.944
132.15
130.277
128.182
125.853
123.249
120.396
117.262
113.696
109.563
104.854
99.5024
93.4604
86.5824
78.7885
69.8855
59.8678
48.4648
35.4325
20.5199
3.47829
-15.9366
-38.001
-63.1062
-91.5654
-123.642
-159.713
-200.125
-245.083
-294.835
-349.653
-409.73
-475.423
-547.009
-622.491
-694.775
-750.574
146.304
143.534
143.675
141.709
141.32
140.095
138.852
137.577
136.17
134.583
132.848
131.002
129.007
126.805
124.313
121.507
118.442
115.113
111.435
107.325
102.78
97.8109
92.292
86.1862
79.2678
71.4583
62.6971
52.8681
41.9121
29.5752
15.7125
0.14388
-17.3383
-37.0138
-59.1552
-83.9829
-111.746
-142.774
-177.328
-215.63
-257.906
-304.364
-355.179
-410.501
-470.503
-535.49
-605.387
-678.184
-745.879
-791.513
142.578
140.042
140.044
138.205
137.446
135.972
134.546
133.008
131.262
129.316
127.113
124.612
121.814
118.767
115.505
111.883
107.86
103.391
98.5249
93.2325
87.3587
80.852
73.6381
65.6926
57.0082
47.4918
36.8908
25.0802
11.9484
-2.60592
-18.6764
-36.5589
-56.4673
-78.5528
-102.962
-129.965
-159.839
-192.766
-228.952
-268.621
-311.92
-358.918
-409.734
-464.505
-523.371
-586.656
-654.047
-723.018
-784.774
-819.806
138.662
136.467
136.276
134.524
133.596
131.96
130.231
128.28
126.088
123.604
120.867
117.835
114.449
110.603
106.317
101.652
96.5585
90.9629
84.7582
78.008
70.6763
62.6129
53.8265
44.2908
33.7793
22.2688
9.72652
-3.99515
-19.0822
-35.6242
-53.8401
-73.8306
-95.7301
-119.743
-146.072
-174.86
-206.25
-240.438
-277.549
-317.722
-361.1
-407.759
-457.739
-511.088
-567.914
-628.557
-692.797
-757.072
-812.128
-837.703
134.834
133.196
132.755
130.947
129.742
127.829
125.808
123.491
120.821
117.817
114.415
110.602
106.407
101.804
96.7009
91.049
84.8026
78.0124
70.599
62.5135
53.6806
44.1297
33.5843
22.1013
9.84376
-3.42115
-17.8685
-33.5156
-50.4697
-68.8978
-88.9147
-110.682
-134.34
-159.97
-187.653
-217.588
-249.901
-284.658
-322.016
-362.075
-404.865
-450.405
-498.733
-549.886
-603.928
-661.045
-721.134
-780.661
-829.886
-848.367
131.47
129.842
129.374
127.515
126.08
123.821
121.396
118.635
115.47
111.863
107.85
103.38
98.3543
92.7809
86.6878
80.0001
72.6688
64.6625
55.898
46.3792
36.1147
24.9326
13.0647
0.201742
-13.8778
-29.0046
-45.2009
-62.6335
-81.3417
-101.48
-123.139
-146.386
-171.322
-198.078
-226.786
-257.457
-290.166
-325.008
-361.999
-401.214
-442.735
-486.55
-532.607
-580.87
-631.369
-684.438
-739.322
-793.194
-836.998
-852.326
127.741
126.67
126.074
124.056
122.437
119.959
117.224
113.99
110.294
106.093
101.33
96.0394
90.2348
83.8104
76.7542
69.018
60.5698
51.4028
41.4868
30.63
18.9723
6.45175
-7.26408
-21.8322
-37.2733
-53.9648
-71.8287
-90.8845
-111.194
-132.787
-155.748
-180.221
-206.254
-233.852
-263.048
-293.955
-326.578
-360.934
-397.1
-435.065
-474.783
-516.263
-559.496
-604.362
-650.715
-698.728
-746.78
-792.23
-826.63
-840.766
124.996
123.942
123.211
121.141
119.285
116.481
113.454
109.835
105.593
100.819
95.4776
89.4437
82.7408
75.3693
67.2822
58.497
48.9522
38.5426
27.3098
15.2445
2.13797
-11.8409
-26.6118
-42.5824
-59.7339
-77.8431
-97.174
-117.655
-139.331
-162.253
-186.431
-211.825
-238.491
-266.555
-296.022
-326.832
-359.046
-392.651
-427.574
-463.794
-501.326
-540.082
-579.934
-620.769
-662.61
-704.575
-744.308
-777.236
-796.654
-807.356
122.586
121.386
120.822
118.89
116.895
113.838
110.434
106.416
101.784
96.4358
90.4286
83.7603
76.3333
68.1473
59.1474
49.2874
38.6272
27.1432
14.6932
1.31059
-12.9343
-28.354
-44.883
-62.2738
-80.6708
-100.191
-120.808
-142.556
-165.478
-189.472
-214.553
-240.777
-268.114
-296.467
-325.878
-356.378
-387.858
-420.309
-453.744
-488.06
-523.084
-558.766
-594.993
-631.416
-668.049
-703.004
-733.825
-755.728
-763.407
-769.289
121.368
120.212
119.233
117.128
115.153
112.048
108.51
104.158
99.1021
93.3782
86.8462
79.5154
71.3746
62.3847
52.565
41.817
30.0806
17.4033
3.79378
-10.8329
-26.4889
-42.9923
-60.6689
-79.6123
-99.5211
-120.404
-142.302
-165.285
-189.28
-214.296
-240.24
-267.03
-294.692
-323.255
-352.58
-382.568
-413.266
-444.613
-476.468
-508.697
-541.214
-573.784
-606.104
-638.666
-669.744
-697.772
-720.886
-736.047
-743.199
-745.06
120.922
120.126
119.072
116.701
114.553
111.296
107.623
103.118
97.8016
91.6853
84.7619
76.9667
68.293
58.6665
48.0608
36.5013
23.9326
10.3075
-4.40591
-20.1593
-37.1069
-55.3317
-74.4258
-94.4518
-115.666
-137.985
-161.24
-185.461
-210.59
-236.528
-263.285
-290.807
-318.935
-347.544
-376.688
-406.315
-436.189
-466.228
-496.484
-526.853
-557.008
-586.817
-616.229
-644.634
-671.179
-694.427
-711.614
-720.479
-727.451
-727.963
121.188
120.378
119.679
117.604
115.36
112.025
108.241
103.591
98.149
91.7926
84.5294
76.3128
67.1277
56.982
45.7872
33.503
20.0961
5.5825
-10.1028
-26.9803
-44.8859
-63.9235
-84.4273
-106.076
-128.708
-152.38
-177.083
-202.663
-229.018
-256.114
-283.813
-311.983
-340.586
-369.554
-398.674
-427.811
-457.021
-486.181
-515.072
-543.662
-571.962
-599.684
-626.409
-651.6
-674.513
-693.384
-706.101
-712.226
-714.509
-715.814
121.99
121.524
120.898
119.215
117.295
114.071
110.331
105.566
99.9826
93.5363
86.133
77.7293
68.2211
57.6028
45.9011
33.0654
19.0683
3.84742
-12.6412
-30.4079
-49.571
-69.9837
-91.4747
-114.281
-138.351
-163.539
-189.728
-216.806
-244.594
-272.968
-301.839
-331.049
-360.39
-389.689
-418.944
-448.134
-476.97
-505.26
-533.073
-560.44
-587.194
-612.955
-637.503
-660.187
-679.861
-694.466
-701.861
-706.976
-707.515
-708.291
123.925
123.569
122.897
121.407
119.916
117.199
113.727
109.262
103.764
97.2409
89.6696
81.0685
71.3954
60.5221
48.4363
35.1277
20.5784
4.75916
-12.3595
-30.8126
-50.661
-72.023
-94.8511
-119.004
-144.418
-171.07
-198.833
-227.536
-257.039
-287.097
-317.434
-347.868
-378.251
-408.452
-438.251
-467.461
-496.179
-524.303
-551.478
-577.808
-603.211
-627.127
-649.443
-669.69
-685.397
-694.633
-700.633
-702.259
-703.232
-703.557
125.353
125.849
125.891
124.751
123.499
121.304
118.338
114.212
109.119
102.837
95.349
86.6566
76.805
65.7602
53.4674
39.8994
24.9917
8.71842
-9.00553
-28.2391
-48.8409
-70.9067
-94.6527
-119.938
-146.758
-174.965
-204.415
-234.951
-266.285
-298.194
-330.482
-362.82
-394.81
-426.135
-456.739
-486.665
-515.718
-543.711
-570.659
-596.326
-620.199
-642.041
-661.992
-678.85
-691.022
-696.384
-699.123
-700.214
-700.986
-701.068
126.16
127.27
128.335
128.471
128.238
126.702
124.239
120.451
115.822
109.974
102.821
94.3017
84.4507
73.2979
60.8562
47.069
31.9288
15.4002
-2.5636
-22.0983
-43.3321
-66.2665
-90.8168
-117.157
-145.19
-174.884
-206.119
-238.7
-272.33
-306.613
-341.156
-375.627
-409.684
-442.944
-475.05
-505.839
-535.461
-563.988
-591.082
-616.003
-638.356
-658.193
-674.8
-687.132
-693.913
-698.423
-698.891
-699.933
-700.466
-700.471
125.692
128.536
130.618
131.679
132.389
132.021
130.662
127.767
123.759
118.455
111.781
103.631
94.0127
82.9529
70.5025
56.6844
41.4523
24.7246
6.41152
-13.3385
-34.9186
-58.2796
-83.4491
-110.666
-139.85
-170.972
-203.997
-238.642
-274.627
-311.596
-349.119
-386.638
-423.488
-459.07
-493.087
-525.531
-556.364
-585.543
-612.722
-637.087
-658.151
-675.504
-687.686
-694.057
-697.929
-699.216
-700.048
-700.827
-701.311
-701.37
123.447
128.322
130.984
134.335
136.846
137.64
137.592
135.88
132.66
127.971
121.834
114.194
104.973
94.2048
81.8933
68.1197
52.9203
36.3417
18.078
-2.02101
-23.6622
-47.1178
-72.7915
-100.531
-130.538
-162.918
-197.63
-234.58
-273.343
-313.357
-354.111
-395.049
-435.459
-474.476
-511.401
-545.841
-578.119
-608.304
-635.865
-660.341
-680.062
-693.23
-700.462
-703.198
-703.747
-703.568
-703.342
-703.003
-702.79
-702.761
117.855
126.53
130.417
135.314
139.569
142.421
144.174
143.929
141.991
138.286
132.898
125.836
117.075
106.68
94.7034
81.1716
66.0661
49.432
31.3673
11.5243
-10.0273
-33.5995
-59.2338
-87.1889
-117.783
-151.032
-187.066
-225.855
-267.289
-310.885
-355.787
-401.059
-445.875
-489.15
-529.617
-567.068
-601.631
-633.422
-661.449
-684.579
-702.62
-712.748
-714.04
-714.014
-712.202
-710.07
-707.25
-705.11
-703.879
-703.413
108.707
120.779
126.951
135.278
141.844
146.587
150.3
151.942
151.56
149.019
144.533
138.158
129.952
119.981
108.319
95.101
80.3781
63.9508
46.0063
26.5338
5.21946
-18.0073
-43.2232
-70.9949
-101.538
-135.221
-172.339
-212.893
-256.776
-303.685
-352.934
-403.442
-453.81
-502.498
-548.107
-589.402
-626.801
-660.428
-689.045
-711.529
-725.028
-729.306
-729.412
-724.314
-720.031
-715.203
-710.406
-706.471
-704.019
-702.811
94.6708
112.725
119.868
131.8
141.411
149.108
155.334
159.371
160.826
159.767
156.474
151.038
143.545
134.065
122.763
109.802
95.2907
79.1678
61.3667
42.1523
21.4045
-1.08888
-25.7556
-52.8462
-82.6712
-116.001
-153.219
-194.803
-240.822
-291.133
-345.125
-401.559
-458.776
-514.723
-566.861
-613.426
-653.824
-689.287
-720.584
-739.433
-744.706
-743.794
-738.833
-732.97
-726.4
-719.364
-712.444
-706.279
-702.285
-700.199
76.3038
99.8431
109.396
125.705
138.716
149.955
159.312
166.027
169.788
170.497
168.449
164.047
157.385
148.486
137.557
124.846
110.35
94.657
77.2204
58.4024
38.2639
16.4573
-7.31942
-33.0969
-61.759
-94.1148
-130.937
-172.698
-219.829
-272.687
-331.122
-394.118
-459.719
-524.643
-585.661
-639.258
-683.298
-719.036
-747.859
-764.258
-761.83
-753.85
-747.914
-742.451
-736.053
-728.393
-720.105
-711.828
-706.006
-702.582
52.2811
85.1831
95.0597
115.547
132.523
148.299
161.754
171.418
178.006
180.706
180.173
177.029
171.375
163.17
152.77
140.359
125.758
109.816
92.736
74.2454
54.7337
33.9225
11.3228
-12.7941
-39.378
-69.6707
-105.18
-146.567
-194.14
-248.706
-310.977
-380.523
-455.661
-532.468
-605.7
-667.612
-716.921
-754.841
-775.815
-781.922
-778.733
-765.89
-760.251
-755.532
-749.953
-742.593
-733.152
-722.671
-715.614
-712.096
18.1762
60.4398
77.325
103.577
124.265
143.926
161.683
174.997
184.423
189.887
191.9
189.765
184.587
177.308
167.412
154.834
140.51
124.18
107.369
89.3457
70.0503
50.7956
30.1044
7.48491
-17.3392
-45.3966
-78.6093
-118.424
-165.394
-220.46
-285.477
-361.565
-447.064
-538.185
-625.819
-696.082
-744.328
-782.018
-799.649
-799.388
-790.297
-781.871
-775.576
-770.886
-766.414
-760.373
-751.334
-739.676
-731.948
-728.478
90.7253
86.0237
83.6268
82.2167
81.2379
80.6548
80.109
79.5958
79.2238
79.0461
78.9928
79.0328
79.1367
79.3048
79.5604
79.9032
80.3413
80.8265
81.3185
81.8011
82.2474
82.9196
83.6526
84.1707
84.6845
85.1963
85.4989
85.4564
84.8595
83.8447
82.1831
79.5643
75.9014
70.3337
63.0102
53.6916
41.8434
27.0442
8.83995
-13.384
-40.4945
-73.1938
-112.182
-158.447
-212.703
-276.221
-349.287
-430.408
-528.204
-634.399
87.5461
82.5555
80.7665
79.0962
77.7281
76.7466
75.8847
75.0964
74.4447
73.9587
73.577
73.2712
73.0347
72.8105
72.6132
72.4539
72.3656
72.3223
72.2658
72.1669
71.7856
71.2839
70.9175
70.4426
69.6584
68.6859
67.4219
65.7491
63.4103
60.2929
56.3806
51.3115
44.6645
36.1451
25.6498
12.8134
-3.07071
-22.3898
-45.4782
-72.773
-105.403
-144.274
-189.933
-243.285
-304.984
-376.696
-458.25
-548.587
-653.031
-766.285
83.1184
77.8791
76.7777
74.9023
73.2726
71.9274
70.7982
69.7801
68.8901
68.1171
67.4326
66.7924
66.1691
65.5133
64.8484
64.1363
63.3915
62.6307
61.8397
61.0619
60.1545
58.8563
57.4035
55.8591
53.8829
51.3795
48.4163
44.9073
40.5842
35.0612
28.429
20.5598
10.8825
-0.730449
-14.7018
-31.5017
-51.6167
-75.4934
-103.654
-136.359
-174.937
-219.959
-272.223
-332.61
-401.785
-480.915
-570.154
-668.35
-776.13
-889.155
77.9384
72.4332
71.8335
69.3955
67.7641
66.304
64.9023
63.6309
62.4789
61.3899
60.323
59.2703
58.1962
57.0862
55.9556
54.7586
53.4554
51.9945
50.3299
48.5143
46.6014
44.371
41.9359
39.2815
36.0996
32.0856
27.3626
21.8203
15.2502
7.4506
-1.80314
-12.6701
-25.3584
-40.4135
-58.226
-79.1348
-103.597
-132.148
-165.372
-203.856
-248.328
-299.546
-358.116
-424.869
-500.596
-586.176
-681.761
-785.429
-894.738
-1004.47
72.1309
66.1795
66.0204
62.9226
61.3876
59.7396
58.1052
56.5874
55.1368
53.6718
52.1873
50.626
48.9874
47.2707
45.4843
43.6006
41.6233
39.5126
37.1378
34.5187
31.6247
28.2339
24.4156
20.3356
15.6515
10.095
3.64594
-3.8893
-12.71
-22.9933
-34.9043
-48.6941
-64.6727
-83.3536
-105.019
-130.02
-158.92
-192.172
-230.412
-274.298
-324.243
-380.978
-445.14
-517.4
-598.408
-688.984
-789.062
-896.091
-1005.94
-1111.39
65.5745
59.34
59.5602
55.7086
54.5068
52.5142
50.665
48.8662
47.0099
45.1353
43.1596
41.0914
38.9298
36.6411
34.1863
31.532
28.6486
25.535
22.1101
18.4301
14.5006
10.0959
5.04853
-0.63957
-7.1262
-14.5482
-23.0287
-32.6986
-43.7455
-56.4292
-70.9632
-87.665
-106.901
-129.083
-154.598
-183.639
-216.739
-254.437
-297.239
-345.826
-400.674
-462.188
-530.815
-607.17
-691.873
-785.671
-888.501
-997.766
-1107.35
-1207.28
58.3472
51.965
52.3711
48.1365
47.006
44.7088
42.5883
40.4764
38.3046
36.0168
33.611
30.999
28.1927
25.2145
22.0162
18.581
14.8464
10.7935
6.3589
1.42087
-3.9255
-9.8191
-16.3128
-23.5487
-31.8024
-41.1337
-51.5948
-63.4272
-76.8682
-92.1706
-109.516
-129.23
-151.702
-177.185
-206.093
-238.905
-275.974
-317.657
-364.453
-416.921
-475.481
-540.547
-612.515
-691.749
-778.627
-873.932
-977.971
-1088.03
-1196.13
-1288.51
50.4085
44.0743
44.3981
40.136
38.8729
36.3154
33.9795
31.5581
29.0232
26.3248
23.4391
20.3692
17.0356
13.3841
9.39013
5.0499
0.31588
-4.8507
-10.4173
-16.4762
-23.1186
-30.4634
-38.6721
-47.7301
-57.8579
-69.238
-81.9005
-96.0486
-111.921
-129.771
-149.839
-172.419
-197.785
-226.402
-258.607
-294.642
-334.913
-379.889
-429.917
-485.408
-546.754
-614.284
-688.239
-768.919
-856.652
-952.095
-1055.74
-1165.17
-1269.91
-1352.15
41.5269
35.7219
35.7761
31.5257
30.0536
27.2459
24.77
22.0408
19.0847
15.9246
12.483
8.75625
4.7482
0.426999
-4.26261
-9.36759
-14.953
-21.0886
-27.8916
-35.3259
-43.4583
-52.3694
-62.1492
-72.9464
-84.9224
-98.214
-112.952
-129.373
-147.703
-168.145
-190.884
-216.181
-244.385
-275.764
-310.679
-349.493
-392.494
-439.957
-492.284
-549.862
-612.905
-681.673
-756.484
-837.486
-924.861
-1019.22
-1120.88
-1227.22
-1326.2
-1395.39
32.1409
27.2056
26.7377
22.7636
21.0737
17.9568
15.1524
12.013
8.59661
4.85909
0.842412
-3.53793
-8.29712
-13.4986
-19.1359
-25.2391
-31.8445
-38.9726
-46.7222
-55.3139
-64.7758
-75.2455
-86.7428
-99.2529
-113.041
-128.305
-145.138
-163.689
-184.177
-206.777
-231.822
-259.543
-290.123
-323.88
-361.118
-402.077
-446.997
-496.27
-550.107
-608.755
-672.53
-741.612
-816.08
-896.13
-982.049
-1074.27
-1172.46
-1273.34
-1364.71
-1419.72
22.4694
18.3183
17.6404
13.8016
11.8923
8.50292
5.35868
1.74562
-2.22905
-6.55571
-11.3164
-16.4709
-22.0261
-28.0341
-34.5747
-41.7073
-49.4786
-57.9588
-67.0901
-76.9364
-87.659
-99.384
-112.327
-126.512
-141.969
-158.863
-177.413
-197.866
-220.412
-245.203
-272.266
-301.907
-334.479
-370.146
-409.055
-451.49
-497.743
-547.976
-602.472
-661.432
-724.915
-793.124
-866.29
-944.426
-1027.66
-1116.44
-1210.23
-1304.49
-1386.56
-1428.21
12.9273
9.24598
8.47323
4.87089
2.73166
-0.97932
-4.53795
-8.64009
-13.1376
-18.0886
-23.4783
-29.3934
-35.8891
-42.9177
-50.4936
-58.6419
-67.4416
-76.9777
-87.4072
-98.7352
-110.968
-124.194
-138.502
-154.117
-171.247
-189.902
-210.181
-232.252
-256.295
-282.484
-311.199
-342.503
-376.47
-413.359
-453.459
-496.865
-543.685
-594.181
-648.47
-706.733
-769.175
-835.79
-906.596
-981.73
-1061.32
-1145.65
-1234.44
-1322.04
-1394.53
-1424.8
3.10253
0.2904
-0.504674
-4.10506
-6.34458
-10.2622
-14.1406
-18.7088
-23.7504
-29.3639
-35.5102
-42.1668
-49.3665
-57.2521
-65.8446
-75.1664
-85.2331
-96.0323
-107.593
-120.109
-133.655
-148.344
-164.258
-181.361
-199.821
-219.862
-241.565
-265.121
-290.755
-318.508
-348.325
-380.565
-415.555
-453.338
-493.947
-537.552
-584.345
-634.435
-687.942
-744.903
-805.326
-869.361
-937.061
-1008.35
-1083.3
-1162.3
-1244.85
-1325.9
-1391.12
-1412.4
-5.81227
-8.03708
-8.85319
-12.3939
-14.9071
-19.1564
-23.3981
-28.3538
-33.8756
-40.0047
-46.8108
-54.2912
-62.444
-71.2014
-80.6226
-90.8051
-101.821
-113.775
-126.667
-140.494
-155.338
-171.271
-188.472
-207.084
-227.109
-248.577
-271.648
-296.38
-322.9
-351.498
-382.436
-415.648
-451.156
-489.16
-529.846
-573.304
-619.535
-668.59
-720.497
-775.379
-833.315
-894.181
-957.956
-1024.57
-1093.93
-1166.89
-1241.95
-1314.83
-1372.32
-1391.28
-13.6262
-15.4684
-16.3242
-19.8864
-22.4851
-26.9993
-31.6274
-37.0634
-43.1661
-49.9418
-57.3466
-65.4157
-74.2646
-83.9018
-94.3411
-105.557
-117.564
-130.419
-144.279
-159.216
-175.277
-192.533
-210.958
-230.637
-251.785
-274.432
-298.65
-324.62
-352.444
-382.024
-413.438
-446.959
-482.756
-520.862
-561.279
-603.976
-649.1
-696.721
-746.813
-799.243
-853.962
-911.01
-970.307
-1031.69
-1094.81
-1160.19
-1225.39
-1285.97
-1330.5
-1349.47
-19.6012
-21.2833
-22.5312
-26.2053
-29.1758
-33.8548
-38.7586
-44.5652
-51.1225
-58.478
-66.5895
-75.4416
-84.9627
-95.2641
-106.394
-118.446
-131.457
-145.402
-160.254
-176.166
-193.19
-211.443
-231.063
-252.01
-274.262
-298.016
-323.238
-349.96
-378.302
-408.47
-440.515
-474.445
-510.271
-548.011
-587.774
-629.68
-673.596
-719.431
-767.104
-816.645
-868.009
-921.019
-975.468
-1030.92
-1087.7
-1144.25
-1197.53
-1241.21
-1266.47
-1282.15
-24.3794
-25.5471
-26.7578
-30.6908
-34.1137
-39.2404
-44.5462
-50.7711
-57.7908
-65.5371
-74.0873
-83.5154
-93.8117
-104.938
-116.88
-129.674
-143.413
-158.216
-174.082
-191.013
-209.063
-228.255
-248.651
-270.436
-293.618
-318.095
-344.133
-371.753
-400.941
-431.644
-463.954
-497.935
-533.627
-571.059
-610.175
-650.895
-693.277
-737.281
-782.818
-829.598
-877.387
-926.065
-975.443
-1025.03
-1074.62
-1121.9
-1163.32
-1192.38
-1202.08
-1211.16
-27.4614
-28.663
-29.9581
-33.5368
-37.045
-42.4779
-48.184
-55.0112
-62.5335
-70.7857
-79.8119
-89.678
-100.46
-112.171
-124.867
-138.523
-153.098
-168.657
-185.348
-203.149
-222.135
-242.351
-263.796
-286.446
-310.479
-335.964
-362.676
-390.78
-420.326
-451.326
-483.762
-517.699
-553.176
-590.1
-628.445
-668.212
-709.317
-751.558
-794.663
-838.598
-883.251
-928.276
-973.105
-1017.57
-1060.38
-1098.88
-1129.77
-1148.93
-1157.75
-1161.56
-28.2433
-29.6302
-31.2465
-34.7665
-38.4246
-44.0638
-50.0727
-57.1939
-64.9395
-73.5402
-83.0481
-93.486
-104.882
-117.192
-130.442
-144.77
-160.137
-176.522
-194.002
-212.674
-232.506
-253.517
-275.785
-299.365
-324.107
-350.121
-377.586
-406.33
-436.397
-467.789
-500.497
-534.483
-569.665
-606.098
-643.765
-682.548
-722.303
-762.979
-804.464
-846.286
-888.078
-929.746
-970.832
-1011.32
-1048.72
-1080.66
-1102.64
-1111.69
-1122.44
-1125.27
-27.0235
-28.7787
-30.7377
-34.58
-38.4382
-43.9797
-49.9966
-57.1613
-65.1404
-74.0429
-83.918
-94.706
-106.519
-119.41
-133.308
-148.223
-164.288
-181.522
-199.826
-219.273
-239.984
-261.952
-285.082
-309.465
-335.254
-362.201
-390.257
-419.579
-450.09
-481.764
-514.561
-548.46
-583.535
-619.634
-656.673
-694.666
-733.542
-773.007
-812.749
-852.746
-892.798
-932.433
-971.484
-1007.94
-1040.87
-1067.55
-1083.78
-1087.44
-1090.62
-1096.31
-24.3532
-26.6165
-28.3485
-32.0054
-36.0939
-41.6624
-47.7288
-54.9639
-63.2724
-72.4776
-82.6178
-93.7421
-105.888
-119.133
-133.552
-149.021
-165.605
-183.469
-202.634
-222.972
-244.511
-267.264
-291.344
-316.667
-343.138
-370.956
-400.001
-430.137
-461.318
-493.43
-526.494
-560.573
-595.524
-631.376
-668.068
-705.476
-743.503
-782.068
-821.027
-860.138
-899.327
-937.705
-974.16
-1008.23
-1037.64
-1057.89
-1066.07
-1073.9
-1072.41
-1077.18
-19.978
-23.2017
-25.4079
-29.0509
-32.8013
-38.0634
-44.0801
-51.177
-59.3811
-68.6372
-78.8672
-90.2199
-102.671
-116.256
-131.099
-147.152
-164.355
-182.755
-202.523
-223.689
-246.159
-269.909
-294.878
-321.192
-348.85
-377.533
-407.305
-438.186
-470.169
-503.134
-536.849
-571.199
-606.265
-642.015
-678.436
-715.507
-753.128
-791.176
-829.44
-867.712
-906.01
-943.977
-979.318
-1010.83
-1036.48
-1051.84
-1055.38
-1057.66
-1059.34
-1062.4
-14.2512
-18.3151
-20.8019
-24.6573
-28.3239
-33.1964
-38.9114
-45.8448
-53.9076
-63.1187
-73.4516
-84.9611
-97.546
-111.306
-126.347
-142.766
-160.554
-179.591
-199.925
-221.649
-244.895
-269.588
-295.696
-323.052
-351.683
-381.681
-412.83
-444.994
-477.871
-511.444
-545.721
-580.622
-616.047
-651.944
-688.314
-725.202
-762.58
-800.324
-838.445
-876.952
-915.533
-952.178
-985.352
-1014.66
-1034.57
-1041.11
-1048.18
-1047.68
-1050.12
-1051.79
-8.06367
-12.547
-15.2467
-19.1307
-23.0672
-27.879
-33.2171
-39.6969
-47.396
-56.3879
-66.6446
-78.0799
-90.7576
-104.648
-119.834
-136.41
-154.465
-173.98
-194.949
-217.379
-241.427
-266.983
-294.093
-322.735
-352.639
-383.639
-415.814
-449.161
-483.553
-518.546
-553.847
-589.468
-625.399
-661.621
-698.165
-734.982
-772.124
-809.759
-847.833
-886.192
-923.838
-959.517
-991.888
-1017.4
-1032.11
-1035.31
-1036.62
-1039.29
-1042.29
-1043.7
-2.192
-6.78779
-9.57168
-13.0878
-16.9315
-21.6558
-26.9036
-33.1784
-40.4923
-48.9936
-58.7674
-69.8021
-82.2485
-96.1446
-111.455
-128.177
-146.464
-166.34
-187.704
-210.749
-235.514
-262.01
-290.138
-319.737
-351.116
-383.886
-417.785
-452.608
-488.294
-524.65
-561.327
-598.068
-634.738
-671.399
-708.129
-745.125
-782.419
-819.789
-857.542
-895.576
-933.129
-968.589
-998.179
-1017.12
-1024.28
-1031.49
-1030.44
-1033.46
-1036.42
-1037.73
3.21746
-0.969938
-4.2614
-7.60061
-10.8609
-14.9076
-19.5848
-25.478
-32.3499
-40.3926
-49.6961
-60.453
-72.6672
-86.3847
-101.624
-118.476
-136.93
-157.083
-178.905
-202.4
-227.791
-255.143
-284.424
-315.426
-347.952
-382.007
-417.596
-454.431
-492.061
-530.203
-568.506
-606.644
-644.431
-681.802
-718.873
-755.778
-792.766
-830.31
-868.157
-905.084
-941.284
-976.844
-1005.45
-1017.76
-1020.92
-1022.72
-1025.61
-1028.82
-1031.71
-1033.03
7.75485
4.86446
1.26242
-2.00388
-5.14255
-8.85435
-12.8978
-18.1029
-24.4155
-31.8342
-40.5055
-50.6042
-62.3012
-75.6275
-90.6499
-107.446
-125.954
-146.286
-168.502
-192.068
-218.194
-246.257
-276.289
-308.601
-342.792
-378.708
-416.195
-455.055
-494.938
-535.279
-575.676
-615.687
-654.945
-693.337
-730.879
-767.885
-804.834
-841.782
-878.326
-914.246
-950.718
-985.154
-1007.72
-1015.35
-1020.65
-1019.52
-1022.78
-1025.39
-1027.71
-1028.97
10.2541
10.3
4.67727
2.64277
0.284325
-2.66738
-5.85779
-10.1834
-15.7803
-22.69
-30.8863
-40.4366
-51.5958
-64.5679
-79.3584
-95.9556
-114.376
-134.772
-157.191
-181.382
-207.697
-236.657
-267.73
-300.827
-336.453
-374.047
-413.543
-454.637
-497.044
-540.094
-583.168
-625.628
-666.843
-706.343
-744.593
-781.46
-817.465
-854.122
-890.457
-925.159
-958.45
-988.898
-1006.17
-1012.39
-1013.64
-1016.9
-1019.93
-1022.45
-1024.49
-1025.52
8.08688
15.5338
8.97679
7.64815
5.04789
2.44785
0.275967
-3.12957
-7.91889
-14.3887
-22.0367
-30.9778
-41.3096
-53.7506
-68.2207
-84.4594
-102.549
-122.795
-145.182
-169.581
-196.401
-225.678
-257.731
-291.983
-328.844
-368.48
-410.336
-453.688
-498.925
-545.077
-591.344
-636.802
-680.403
-722.184
-761.43
-798.293
-833.211
-867.854
-902.324
-939.082
-972.86
-989.04
-997.585
-1008.09
-1007.68
-1013.18
-1017.18
-1020.39
-1022.5
-1023.16
-18.2102
13.4393
13.0284
12.1473
10.5449
8.23274
6.66196
5.7764
1.68333
-5.7527
-13.6215
-22.3582
-32.3727
-44.4253
-58.3011
-74.3688
-92.4914
-112.467
-134.506
-159.377
-186.903
-216.663
-249.347
-284.619
-322.318
-363.426
-407.446
-452.977
-501.483
-551.326
-601.377
-650.294
-697.232
-741.67
-782.135
-818.336
-853.064
-882.91
-909.154
-935.644
-966.545
-980.903
-986.545
-993.707
-1002.04
-1009.3
-1015.38
-1019.73
-1022.24
-1022.79
-6.90304
17.0795
14.742
12.4645
10.0933
8.12566
5.98171
5.32845
3.92137
-1.82526
-8.83217
-16.5346
-25.1999
-36.0464
-50.0447
-65.6869
-83.8684
-104.396
-127.446
-152.484
-180.267
-210.962
-244.568
-280.751
-319.648
-362.121
-408.256
-457.528
-509.893
-564.003
-618.884
-672.33
-723.638
-771.045
-813.318
-850.098
-879.882
-906.503
-934.147
-960.916
-980.965
-989.172
-989.92
-989.609
-999.131
-1008.25
-1016.11
-1021.62
-1024.47
-1024.86
5.61861
13.1205
13.1925
11.8619
9.01595
5.90503
4.54588
3.4742
0.641623
-4.33771
-10.7337
-16.8513
-25.4887
-36.1602
-50.7955
-67.6704
-87.0334
-109.221
-133.45
-159.197
-187.012
-218.263
-253.428
-290.973
-331.551
-376.253
-425.959
-479.518
-536.772
-595.705
-655.349
-713.555
-767.427
-818.365
-862.248
-892.979
-918.108
-942.705
-962.693
-974.114
-978.159
-978.8
-981.336
-988.009
-998.9
-1010.36
-1020.39
-1027.29
-1030.55
-1030.73
12.7369
13.4493
12.1967
10.0191
8.97934
5.86189
2.96433
1.54309
-2.25384
-7.2641
-15.6218
-23.2425
-31.5793
-44.8661
-61.0443
-80.0048
-100.66
-124.761
-150.875
-179.001
-208.607
-240.864
-276.969
-316.81
-359.659
-407.172
-460.581
-519.316
-581.699
-646.936
-711.353
-773.256
-832.066
-883.713
-920.749
-945.823
-965.665
-977.9
-980.085
-973.829
-967.831
-969.698
-976.787
-988.19
-1001.62
-1015.89
-1028.76
-1037.39
-1041.08
-1040.97
15.0445
12.133
9.03676
6.97539
6.36565
4.66476
3.47084
1.34459
-2.85408
-13.4671
-20.6652
-26.5397
-37.5082
-54.6476
-73.5722
-95.928
-120.974
-147.286
-175.019
-204.573
-236.459
-271.263
-309.692
-352.291
-398.563
-450.512
-508.931
-574.07
-644.067
-715.182
-785.605
-854.358
-914.701
-959.378
-988.965
-1005.97
-1008.3
-1006.75
-985.232
-968.815
-964.143
-968.74
-979.516
-992.837
-1008.63
-1025.78
-1042.09
-1052.37
-1056.37
-1056.15
13.8291
8.2587
2.57372
-0.118809
0.125657
-1.26268
-2.4208
-12.4625
-17.6072
-20.985
-29.3332
-36.3152
-47.1391
-65.526
-87.9541
-112.452
-140.466
-170.023
-200.888
-232.657
-266.295
-303.355
-345.743
-392.364
-443.383
-500.823
-567.768
-641.641
-720.198
-800.303
-880.325
-951.924
-1007.04
-1046.15
-1067.07
-1065.45
-1045.5
-1013.11
-991.776
-975.697
-973.92
-979.747
-990.249
-1004.6
-1021.79
-1040.5
-1058.35
-1070.15
-1074.5
-1074
7.96752
-0.475896
-10.4877
-15.4017
-12.169
-16.9997
-29.4322
-34.9668
-40.6034
-42.1519
-43.3161
-51.5617
-66.3642
-87.9579
-112.772
-138.97
-167.243
-196.414
-226.92
-259.965
-296.136
-335.636
-381.904
-433.955
-491.953
-557.997
-634.587
-720.233
-811.158
-904.913
-991.747
-1060.47
-1113.31
-1145.08
-1143.27
-1112.64
-1066.37
-1029.14
-1007.65
-998.189
-995.282
-1000.38
-1010.87
-1024.46
-1040.61
-1058.37
-1075.66
-1087.86
-1092.85
-1092.76
-4.88707
-24.232
-41.5148
-41.2552
-37.4021
-67.9878
-80.8541
-75.7493
-72.177
-73.7059
-76.0798
-82.8199
-96.6003
-121.896
-150.385
-179.788
-206.443
-233.206
-259.991
-289.647
-325.341
-367.128
-416.745
-475.852
-542.425
-619.91
-708.602
-810.235
-920.247
-1027.86
-1116.72
-1187.73
-1233.3
-1239.33
-1202.63
-1145.82
-1097.88
-1066.88
-1045.39
-1032.54
-1028.8
-1032.36
-1039.81
-1050.74
-1064.06
-1079.04
-1094.07
-1105.41
-1110.47
-1111.21
-34.5188
-63.7339
-91.8978
-111.363
-126.329
-139.421
-154.155
-149.356
-137.207
-128.338
-124.061
-131.693
-157.407
-196.661
-218.859
-234.62
-254.604
-275.885
-298.916
-324.532
-357.189
-400.107
-452.852
-517.96
-593.861
-684.584
-793.24
-918.854
-1049.32
-1166.97
-1264.61
-1331.93
-1351.53
-1313.53
-1254.64
-1202.46
-1159.9
-1123.89
-1098.71
-1082.48
-1073.81
-1072.18
-1075.58
-1082.43
-1091.57
-1102.46
-1113.88
-1123.18
-1127.78
-1129.91
-88.0214
-163.409