/*--------------------------------*- C++ -*----------------------------------*\
| =========                 |                                                 |
| \\      /  F ield         | OpenFOAM: The Open Source CFD Toolbox           |
|  \\    /   O peration     | Version:  v1912                                 |
|   \\  /    A nd           | Website:  www.openfoam.com                      |
|    \\/     M anipulation  |                                                 |
\*---------------------------------------------------------------------------*/
FoamFile
{
    version     2.0;
    format      ascii;
    class       surfaceScalarField;
    location    "0.34";
    object      phi;
}
// * * * * * * * * * * * * * * * * * * * * * * * * * * * * * * * * * * * * * //

dimensions      [0 3 -1 0 0 0 0];
oriented        oriented;


internalField   nonuniform List<scalar> 
13060
(
0.00650093
0.98756
-0.994061
0.00937431
0.943394
-0.946268
0.0120722
0.896499
-0.899197
0.0146893
0.851489
-0.854106
0.0170073
0.808658
-0.810976
0.018995
0.76794
-0.769927
0.0206439
0.7293
-0.730949
0.0217264
0.693071
-0.694153
0.0224229
0.658665
-0.659362
0.0229515
0.626099
-0.626628
0.0233235
0.595264
-0.595636
0.0236025
0.565974
-0.566253
0.0238226
0.53821
-0.53843
0.0239981
0.511748
-0.511923
0.0241153
0.486582
-0.486699
0.024104
0.462688
-0.462677
0.0240144
0.439826
-0.439737
0.0238814
0.41796
-0.417827
0.0237834
0.397118
-0.39702
0.0237323
0.377283
-0.377231
0.0236235
0.358454
-0.358346
0.0233949
0.340471
-0.340242
0.0228979
0.323488
-0.322991
0.0222773
0.307195
-0.306574
0.021687
0.291688
-0.291097
0.0212185
0.276851
-0.276383
0.0207619
0.262861
-0.262405
0.0202296
0.249566
-0.249033
0.0195558
0.237023
-0.236349
0.0188054
0.225172
-0.224421
0.0180114
0.21385
-0.213056
0.0171917
0.203189
-0.202369
0.0163598
0.193306
-0.192475
0.0155029
0.183886
-0.183029
0.0145737
0.174927
-0.173998
0.0135571
0.166644
-0.165628
0.0123731
0.158859
-0.157675
0.0111065
0.151447
-0.15018
0.00986623
0.144557
-0.143317
0.00861361
0.138158
-0.136905
0.00733182
0.13213
-0.130848
0.0060368
0.126461
-0.125166
0.00473139
0.121108
-0.119802
0.00342911
0.116152
-0.11485
0.00217031
0.111428
-0.110169
0.00102676
0.10712
-0.105977
-3.33193e-05
0.102637
-0.101577
-0.00126265
0.0993573
-0.098128
-0.00155928
0.091484
-0.0911874
0.0642739
-0.0658332
0.0067232
0.980837
0.00910689
0.941011
0.0114482
0.894157
0.013482
0.849456
0.0152027
0.806938
0.0167741
0.766368
0.0180438
0.72803
0.0189768
0.692138
0.019617
0.658025
0.0199604
0.625756
0.0200642
0.59516
0.0199295
0.566108
0.0196238
0.538516
0.0192706
0.512101
0.0189496
0.486903
0.0187221
0.462916
0.0185463
0.440002
0.0183242
0.418182
0.0180329
0.397409
0.0177036
0.377612
0.0173997
0.358758
0.0171566
0.340714
0.0170984
0.323546
0.0170677
0.307225
0.0169111
0.291844
0.0164936
0.277269
0.0159251
0.26343
0.0152947
0.250196
0.0146654
0.237652
0.0140051
0.225832
0.0132048
0.21465
0.0123232
0.204071
0.0114014
0.194228
0.0104163
0.184871
0.00938846
0.175955
0.00836529
0.167667
0.00739538
0.159829
0.00641153
0.152431
0.00536052
0.145608
0.00428536
0.139233
0.00326776
0.133147
0.00227445
0.127454
0.00133592
0.122046
0.000477703
0.11701
-0.000378876
0.112285
-0.00119141
0.107933
-0.00204616
0.103492
-0.00240965
0.0997208
-0.00208749
0.0911619
0.0621864
0.00690864
0.973928
0.00936391
0.938555
0.0110688
0.892452
0.0125327
0.847992
0.0137878
0.805683
0.0146881
0.765468
0.0150142
0.727704
0.0150741
0.692078
0.0149765
0.658123
0.0149084
0.625824
0.0149154
0.595153
0.0149518
0.566072
0.0149672
0.538501
0.0149003
0.512168
0.0146513
0.487152
0.0143289
0.463238
0.0139818
0.440349
0.0137238
0.41844
0.0135325
0.3976
0.0133209
0.377824
0.0130756
0.359004
0.0126523
0.341137
0.012008
0.32419
0.0112079
0.308025
0.0105638
0.292489
0.0100859
0.277747
0.00963102
0.263885
0.00908996
0.250737
0.00843016
0.238312
0.00773643
0.226526
0.00709416
0.215292
0.00640851
0.204756
0.00570775
0.194929
0.00497857
0.1856
0.00425185
0.176682
0.00347445
0.168445
0.00259879
0.160704
0.00171837
0.153311
0.000925879
0.1464
0.000175738
0.139983
-0.000632324
0.133955
-0.00138548
0.128208
-0.00209638
0.122757
-0.00274619
0.11766
-0.00329371
0.112832
-0.00371117
0.10835
-0.00402943
0.10381
-0.00375151
0.0994429
-0.00272527
0.0901356
0.0594611
0.00633524
0.967593
0.00788445
0.937006
0.00908333
0.891254
0.0100463
0.847029
0.0108637
0.804865
0.0115748
0.764757
0.0118953
0.727384
0.0119921
0.691981
0.0119794
0.658135
0.0117513
0.626052
0.0112832
0.595621
0.0106817
0.566673
0.0101332
0.539049
0.00971329
0.512588
0.00944381
0.487421
0.00917749
0.463505
0.00880542
0.440721
0.00829937
0.418946
0.0077808
0.398119
0.00729232
0.378312
0.00684483
0.359451
0.00650102
0.341481
0.00636724
0.324324
0.00633051
0.308062
0.00604773
0.292771
0.00554487
0.27825
0.00496813
0.264462
0.00435831
0.251347
0.00377126
0.238899
0.00313339
0.227164
0.0023835
0.216042
0.00162725
0.205513
0.000880863
0.195675
0.000100713
0.18638
-0.000760915
0.177543
-0.00154247
0.169226
-0.00220051
0.161362
-0.0028526
0.153963
-0.00353742
0.147085
-0.00417736
0.140623
-0.00469188
0.13447
-0.00512634
0.128642
-0.00546192
0.123093
-0.00568228
0.11788
-0.00577471
0.112924
-0.0057121
0.108288
-0.00557786
0.103676
-0.00492391
0.098789
-0.0033399
0.0885516
0.0561212
0.00628264
0.96131
0.00766725
0.935622
0.00838651
0.890534
0.00884398
0.846571
0.00906758
0.804642
0.008701
0.765123
0.00807698
0.728008
0.00749362
0.692564
0.00691704
0.658712
0.00658093
0.626388
0.00639863
0.595803
0.00622172
0.56685
0.00590149
0.539369
0.00543883
0.51305
0.00497786
0.487882
0.00455394
0.463928
0.00428332
0.440992
0.0040012
0.419228
0.00363893
0.398481
0.00328093
0.37867
0.00287772
0.359854
0.00227657
0.342082
0.00146545
0.325135
0.000479285
0.309048
-0.000226791
0.293477
-0.00077125
0.278794
-0.00126472
0.264955
-0.00181059
0.251893
-0.00243216
0.239521
-0.00302672
0.227758
-0.00357353
0.216589
-0.00415723
0.206096
-0.00473739
0.196256
-0.00528355
0.186926
-0.00579459
0.178054
-0.00633688
0.169769
-0.00692501
0.16195
-0.00744259
0.154481
-0.00784232
0.147485
-0.00816664
0.140947
-0.00842032
0.134723
-0.00857407
0.128796
-0.00863354
0.123152
-0.00857245
0.117819
-0.00836492
0.112717
-0.00796819
0.107891
-0.00745927
0.103167
-0.00634439
0.0976741
-0.00407915
0.0862864
0.0520421
0.004936
0.956374
0.00522635
0.935331
0.00530527
0.890455
0.0052792
0.846597
0.00520071
0.80472
0.00504113
0.765283
0.00475271
0.728296
0.00434374
0.692973
0.00380702
0.659249
0.00302127
0.627174
0.0021143
0.59671
0.00137581
0.567589
0.000849829
0.539895
0.000434357
0.513466
-5.80996e-05
0.488374
-0.000655368
0.464526
-0.00129038
0.441627
-0.0018965
0.419834
-0.00246754
0.399052
-0.00304745
0.37925
-0.00357723
0.360384
-0.0039139
0.342419
-0.00402106
0.325242
-0.00411692
0.309144
-0.00453381
0.293894
-0.00511456
0.279375
-0.00574444
0.265585
-0.00635596
0.252504
-0.00690178
0.240067
-0.00752487
0.228381
-0.00820183
0.217266
-0.00882397
0.206718
-0.0094091
0.196841
-0.00999946
0.187517
-0.0105918
0.178647
-0.0110559
0.170233
-0.0113697
0.162264
-0.0116509
0.154762
-0.0118931
0.147727
-0.0120114
0.141066
-0.0120069
0.134719
-0.0118791
0.128668
-0.011612
0.122885
-0.0112004
0.117408
-0.0106596
0.112176
-0.00994816
0.107179
-0.00912282
0.102342
-0.00762025
0.0961715
-0.00470672
0.0833728
0.0473353
0.00492718
0.951447
0.00492732
0.935331
0.00468156
0.890701
0.00410704
0.847172
0.00317581
0.805651
0.00185449
0.766604
0.000675702
0.729475
-0.000346078
0.693995
-0.00113551
0.660038
-0.00164715
0.627686
-0.00210576
0.597169
-0.00274839
0.568231
-0.00347587
0.540623
-0.00415288
0.514143
-0.00468128
0.488903
-0.00504629
0.464891
-0.00541515
0.441996
-0.00584366
0.420263
-0.00628392
0.399493
-0.00670213
0.379668
-0.00725749
0.360939
-0.00803766
0.343199
-0.00913652
0.326341
-0.0101247
0.310132
-0.0108174
0.294587
-0.0113669
0.279924
-0.0118641
0.266082
-0.0123824
0.253022
-0.0129522
0.240636
-0.0134263
0.228855
-0.0138477
0.217687
-0.0142914
0.207162
-0.0146796
0.197229
-0.0149624
0.187799
-0.015172
0.178856
-0.0153941
0.170455
-0.0156199
0.16249
-0.0157286
0.154871
-0.015693
0.147691
-0.0155564
0.140929
-0.0153152
0.134478
-0.0149453
0.128298
-0.0144561
0.122396
-0.0138396
0.116791
-0.0131079
0.111444
-0.0122691
0.106341
-0.0110519
0.101125
-0.00905724
0.0941768
-0.00540387
0.0797195
0.0419315
0.00355763
0.947889
0.00198427
0.936905
0.000664057
0.892021
-0.000133553
0.847969
-0.000952636
0.806471
-0.00166214
0.767314
-0.00246367
0.730276
-0.00338516
0.694917
-0.00447125
0.661124
-0.00558492
0.628799
-0.00653549
0.59812
-0.00726426
0.56896
-0.00791217
0.541271
-0.00861663
0.514847
-0.00944306
0.489729
-0.010316
0.465764
-0.0110991
0.442779
-0.011814
0.420978
-0.0125659
0.400244
-0.0132559
0.380358
-0.0137471
0.361431
-0.0140066
0.343459
-0.014022
0.326356
-0.0141595
0.31027
-0.0146402
0.295068
-0.0152316
0.280516
-0.0158543
0.266705
-0.0164479
0.253616
-0.016944
0.241132
-0.0175005
0.229412
-0.018018
0.218205
-0.0184336
0.207578
-0.01879
0.197585
-0.0191532
0.188163
-0.0194771
0.17918
-0.0196114
0.170589
-0.0195618
0.16244
-0.0194497
0.154759
-0.0192663
0.147508
-0.018946
0.140609
-0.0184855
0.134017
-0.0178981
0.127711
-0.0171793
0.121677
-0.0163262
0.115938
-0.015343
0.110461
-0.0143097
0.105307
-0.0127407
0.0995558
-0.01035
0.0917861
-0.00598543
0.0753549
0.035946
0.0032785
0.944611
0.00199722
0.938186
0.000549203
0.893469
-0.00112665
0.849645
-0.00308761
0.808432
-0.00479499
0.769021
-0.00626572
0.731747
-0.00747676
0.696128
-0.00846349
0.662111
-0.0093338
0.62967
-0.0102338
0.59902
-0.0112109
0.569937
-0.0121004
0.54216
-0.0128017
0.515549
-0.0133264
0.490254
-0.0138181
0.466255
-0.0143905
0.443352
-0.0149611
0.421548
-0.0154923
0.400776
-0.0161033
0.380969
-0.0168924
0.36222
-0.0178937
0.34446
-0.0190866
0.327549
-0.020037
0.31122
-0.0206465
0.295677
-0.0211397
0.281009
-0.0215904
0.267156
-0.0220261
0.254052
-0.0224846
0.241591
-0.0228112
0.229739
-0.0230893
0.218483
-0.0233693
0.207858
-0.023555
0.197771
-0.0235734
0.188181
-0.0234724
0.179079
-0.0233762
0.170493
-0.0232661
0.16233
-0.0230218
0.154514
-0.0226273
0.147114
-0.0221179
0.140099
-0.0214914
0.133391
-0.0207374
0.126957
-0.0198725
0.120812
-0.0189031
0.114969
-0.0178144
0.109372
-0.0165832
0.104076
-0.0147499
0.0977225
-0.0118286
0.0888648
-0.00661887
0.0701451
0.0293272
0.00150131
0.94311
-0.00127016
0.940957
-0.00339869
0.895598
-0.00508976
0.851336
-0.00641676
0.809759
-0.00771432
0.770319
-0.0089592
0.732992
-0.0102351
0.697404
-0.0115518
0.663427
-0.0127553
0.630873
-0.0137433
0.600008
-0.014646
0.57084
-0.0155907
0.543105
-0.0166639
0.516622
-0.0177747
0.491365
-0.0187554
0.467236
-0.019624
0.44422
-0.0204665
0.422391
-0.0213328
0.401642
-0.0220541
0.38169
-0.0225636
0.362729
-0.022806
0.344702
-0.0228532
0.327597
-0.0231459
0.311513
-0.0237151
0.296246
-0.024285
0.281579
-0.0248508
0.267721
-0.0253581
0.254559
-0.0258159
0.242049
-0.0262641
0.230187
-0.0266277
0.218846
-0.0268367
0.208067
-0.0269786
0.197913
-0.0271322
0.188335
-0.0272265
0.179173
-0.0270951
0.170362
-0.0267533
0.161989
-0.0263253
0.154086
-0.0258144
0.146603
-0.0251751
0.13946
-0.024405
0.13262
-0.0235189
0.126071
-0.0225179
0.119811
-0.0214022
0.113853
-0.0202805
0.108251
-0.0187303
0.102526
-0.016626
0.0956182
-0.0131539
0.0853927
-0.00718955
0.0641808
0.0221376
0.0014786
0.941631
-0.000717295
0.943153
-0.00324623
0.898127
-0.00571911
0.853809
-0.00806421
0.812104
-0.0100676
0.772322
-0.0118416
0.734766
-0.013332
0.698894
-0.0146104
0.664706
-0.0157831
0.632046
-0.0169497
0.601174
-0.0180435
0.571934
-0.0189548
0.544016
-0.0196593
0.517326
-0.0203325
0.492038
-0.0210744
0.467978
-0.0218318
0.444978
-0.0225264
0.423085
-0.0232276
0.402343
-0.0240798
0.382543
-0.0250298
0.363679
-0.0262078
0.34588
-0.0274427
0.328831
-0.0283217
0.312392
-0.0288947
0.296819
-0.0294103
0.282095
-0.0298606
0.268172
-0.0302928
0.254991
-0.030628
0.242384
-0.0308142
0.230373
-0.0309678
0.219
-0.0311226
0.208222
-0.0311641
0.197955
-0.0309892
0.18816
-0.0306554
0.17884
-0.0303199
0.170026
-0.0299854
0.161654
-0.0295256
0.153627
-0.0289085
0.145986
-0.0281623
0.138714
-0.0273015
0.13176
-0.026331
0.1251
-0.0252604
0.118741
-0.0241034
0.112696
-0.0229025
0.10705
-0.0210776
0.100701
-0.0185781
0.0931187
-0.0142446
0.0810593
-0.00726239
0.0571986
0.0148752
0.000108952
0.941522
-0.00345882
0.946721
-0.00617666
0.900845
-0.00859154
0.856224
-0.0105242
0.814036
-0.0122919
0.77409
-0.0138808
0.736355
-0.0154147
0.700428
-0.0168691
0.66616
-0.0182221
0.633399
-0.0193961
0.602348
-0.0205303
0.573068
-0.0217621
0.545248
-0.0230538
0.518618
-0.0242182
0.493202
-0.0252463
0.469006
-0.0262376
0.445969
-0.0272542
0.424102
-0.0281341
0.403223
-0.0288942
0.383303
-0.0294501
0.364235
-0.0296767
0.346107
-0.0298618
0.329017
-0.0303896
0.31292
-0.0310641
0.297494
-0.0316568
0.282687
-0.03221
0.268725
-0.0326978
0.255479
-0.0331153
0.242801
-0.0335217
0.23078
-0.0337994
0.219278
-0.0338945
0.208317
-0.0339058
0.197966
-0.0339303
0.188184
-0.0339074
0.178817
-0.0336636
0.169782
-0.0331794
0.16117
-0.03258
0.153027
-0.0318998
0.145305
-0.0311105
0.137924
-0.0301919
0.130841
-0.0291512
0.124059
-0.0280253
0.117615
-0.0269392
0.11161
-0.0254959
0.105607
-0.023472
0.0986772
-0.0203041
0.0899507
-0.014671
0.0754262
-0.00599138
0.0485189
0.00888386
0.000562237
0.94096
-0.00263051
0.949914
-0.00576109
0.903975
-0.00865652
0.85912
-0.0112541
0.816634
-0.0136152
0.776451
-0.0156724
0.738412
-0.0173919
0.702147
-0.0189022
0.667671
-0.0202664
0.634763
-0.0215843
0.603666
-0.0227364
0.57422
-0.0236413
0.546153
-0.0245014
0.519478
-0.025432
0.494133
-0.0263625
0.469936
-0.0272347
0.446841
-0.0280971
0.424964
-0.0290153
0.404141
-0.0300066
0.384294
-0.0311364
0.365365
-0.0325188
0.347489
-0.0337852
0.330283
-0.0345868
0.313721
-0.035202
0.298109
-0.0358247
0.28331
-0.0363776
0.269278
-0.0368168
0.255918
-0.0371676
0.243152
-0.0373461
0.230958
-0.037475
0.219407
-0.0376006
0.208442
-0.0376188
0.197984
-0.0374076
0.187973
-0.036995
0.178404
-0.0365508
0.169338
-0.0361341
0.160753
-0.0356234
0.152516
-0.0349518
0.144634
-0.0341348
0.137107
-0.0332053
0.129912
-0.0321813
0.123035
-0.031081
0.116514
-0.0299382
0.110467
-0.028151
0.103819
-0.0257641
0.0962903
-0.0217085
0.0858951
-0.0143849
0.0681025
-0.00417396
0.038308
0.0047099
-0.000543457
0.941503
-0.00480856
0.954179
-0.00803572
0.907202
-0.0109339
0.862018
-0.0131759
0.818876
-0.0151691
0.778444
-0.0169255
0.740169
-0.0186109
0.703833
-0.0202044
0.669264
-0.0216424
0.636201
-0.0229557
0.604979
-0.0243528
0.575617
-0.0258264
0.547627
-0.0271516
0.520803
-0.0283566
0.495338
-0.0295202
0.4711
-0.0306641
0.447985
-0.0317451
0.426046
-0.0327116
0.405108
-0.0335716
0.385154
-0.0342189
0.366012
-0.0344891
0.34776
-0.0349138
0.330708
-0.0356991
0.314507
-0.036479
0.298889
-0.0371225
0.283953
-0.0377548
0.26991
-0.0383248
0.256488
-0.0388237
0.243651
-0.0393027
0.231437
-0.0396506
0.219755
-0.0398039
0.208596
-0.039843
0.198023
-0.0398726
0.188003
-0.0398812
0.178413
-0.0397154
0.169172
-0.0392846
0.160322
-0.0386881
0.15192
-0.0380063
0.143952
-0.0372324
0.136334
-0.0363267
0.129006
-0.0352983
0.122007
-0.034362
0.115578
-0.0329977
0.109103
-0.0310115
0.101833
-0.0279109
0.0931897
-0.02263
0.0806143
-0.0141856
0.0596582
-0.00268049
0.0268028
0.00202941
-2.54317e-05
0.941529
-0.00353414
0.957687
-0.00685692
0.910525
-0.0100861
0.865247
-0.0129595
0.821749
-0.0154644
0.780949
-0.0176054
0.74231
-0.0193905
0.705618
-0.020958
0.670832
-0.0225162
0.637759
-0.0238697
0.606333
-0.0249296
0.576677
-0.0259893
0.548686
-0.0271153
0.521929
-0.0282444
0.496467
-0.0293409
0.472197
-0.0303974
0.449041
-0.0314824
0.427131
-0.032638
0.406263
-0.0338117
0.386328
-0.0351436
0.367344
-0.0367015
0.349317
-0.0379475
0.331954
-0.0388009
0.31536
-0.0396255
0.299714
-0.0404844
0.284812
-0.0411839
0.27061
-0.0417974
0.257102
-0.0422914
0.244145
-0.0426196
0.231765
-0.0428804
0.220015
-0.0431224
0.208838
-0.0432767
0.198177
-0.0432226
0.187949
-0.0429379
0.178128
-0.0425519
0.168786
-0.0421949
0.159965
-0.041794
0.151519
-0.0412378
0.143396
-0.0405149
0.135611
-0.0396821
0.128173
-0.0388871
0.121212
-0.0379299
0.114621
-0.0362866
0.10746
-0.0339679
0.0995144
-0.0301878
0.0894096
-0.0233647
0.0737912
-0.0125487
0.0488421
-0.001561
0.0158151
0.000468413
-0.00129388
0.942823
-0.00601237
0.962406
-0.00937978
0.913893
-0.0121014
0.867969
-0.0142844
0.823932
-0.0163522
0.783017
-0.0181694
0.744127
-0.0199036
0.707352
-0.0214525
0.67238
-0.0228375
0.639144
-0.0243877
0.607883
-0.0259706
0.57826
-0.0273938
0.550109
-0.0287587
0.523294
-0.0300763
0.497785
-0.0313984
0.473519
-0.0327079
0.450351
-0.0338997
0.428322
-0.0349935
0.407357
-0.0360073
0.387341
-0.0368051
0.368142
-0.0373555
0.349868
-0.0381707
0.332769
-0.0392224
0.316412
-0.040127
0.300618
-0.0409678
0.285653
-0.0417868
0.271429
-0.0425399
0.257855
-0.0432467
0.244852
-0.0439368
0.232455
-0.0445224
0.220601
-0.0449397
0.209255
-0.045211
0.198449
-0.0454159
0.188153
-0.0455996
0.178312
-0.0456939
0.168881
-0.0455354
0.159807
-0.0451321
0.151116
-0.0446106
0.142874
-0.0440125
0.135013
-0.0433598
0.12752
-0.0427214
0.120574
-0.0415167
0.113416
-0.0398483
0.105791
-0.0372239
0.09689
-0.0322909
0.0844766
-0.023283
0.0647833
-0.0092934
0.0348526
-0.00111764
0.00763935
-0.000649222
-0.000299156
0.943122
-0.0040505
0.966157
-0.00778706
0.917629
-0.0112641
0.871446
-0.0139891
0.826657
-0.0163205
0.785348
-0.018212
0.746018
-0.0198628
0.709003
-0.0214669
0.673985
-0.0228304
0.640508
-0.0239492
0.609002
-0.0251027
0.579414
-0.026325
0.551332
-0.0275812
0.52455
-0.0288605
0.499064
-0.0301173
0.474775
-0.0314094
0.451643
-0.0327933
0.429706
-0.034229
0.408793
-0.0356926
0.388805
-0.0372786
0.369728
-0.0388907
0.35148
-0.0402439
0.334122
-0.0413553
0.317523
-0.0425141
0.301777
-0.0436229
0.286762
-0.0446074
0.272413
-0.0455269
0.258774
-0.0463254
0.24565
-0.0469821
0.233112
-0.0475552
0.221174
-0.0480728
0.209772
-0.0485204
0.198896
-0.0488204
0.188453
-0.048899
0.17839
-0.0487712
0.168753
-0.0486152
0.159651
-0.0484787
0.150979
-0.0482221
0.142618
-0.0478028
0.134593
-0.0474526
0.12717
-0.0467535
0.119874
-0.0455126
0.112175
-0.0435832
0.103862
-0.039783
0.0930898
-0.0322718
0.0769655
-0.0198186
0.0523301
-0.00541119
0.0204451
-0.00059821
0.00282637
-0.00124743
-0.00134908
0.944471
-0.00633718
0.971145
-0.00981524
0.921107
-0.0127871
0.874417
-0.0150004
0.828871
-0.0168605
0.787208
-0.0185483
0.747706
-0.0199827
0.710437
-0.0212448
0.675247
-0.0227583
0.642021
-0.0242953
0.610539
-0.0256815
0.5808
-0.0270613
0.552711
-0.0284455
0.525934
-0.0298587
0.500477
-0.0313302
0.476247
-0.0327644
0.453077
-0.0340995
0.431041
-0.0353472
0.41004
-0.0365103
0.389968
-0.0375648
0.370782
-0.0386133
0.352528
-0.0398316
0.33534
-0.0411338
0.318825
-0.0423355
0.302979
-0.0434743
0.287901
-0.0446415
0.27358
-0.0457372
0.25987
-0.0468073
0.24672
-0.0478549
0.23416
-0.0488174
0.222137
-0.0496679
0.210623
-0.050364
0.199592
-0.0509148
0.189004
-0.0514002
0.178876
-0.0518886
0.169241
-0.0522025
0.159965
-0.0522038
0.150981
-0.0520385
0.142452
-0.0519168
0.134472
-0.0516181
0.126871
-0.050711
0.118967
-0.049302
0.110766
-0.046518
0.101078
-0.0408437
0.0874154
-0.0303639
0.0664857
-0.0138442
0.0358105
-0.00285083
0.00945173
-0.000103836
7.93818e-05
-0.00135127
-0.00133197
0.945803
-0.00554044
0.975354
-0.00920299
0.92477
-0.0123588
0.877573
-0.0150415
0.831553
-0.01722
0.789387
-0.0187589
0.749245
-0.0200194
0.711698
-0.021025
0.676252
-0.0219227
0.642919
-0.0229606
0.611577
-0.0240903
0.58193
-0.0252835
0.553905
-0.026609
0.52726
-0.0279457
0.501814
-0.029333
0.477634
-0.0308424
0.454586
-0.0324938
0.432693
-0.0342426
0.411789
-0.0360652
0.391791
-0.0378979
0.372615
-0.039642
0.354272
-0.0411754
0.336874
-0.04264
0.32029
-0.0441331
0.304472
-0.0455881
0.289356
-0.0469577
0.27495
-0.0482858
0.261198
-0.0495194
0.247954
-0.0506606
0.235301
-0.0517191
0.223195
-0.0526814
0.211585
-0.0535715
0.200483
-0.0543897
0.189822
-0.0550468
0.179533
-0.055403
0.169597
-0.0555973
0.160159
-0.0558445
0.151228
-0.0560731
0.142681
-0.05614
0.134539
-0.0557058
0.126437
-0.054856
0.118118
-0.0529481
0.108858
-0.0485384
0.0966683
-0.0393126
0.0781896
-0.0237024
0.0508754
-0.00729825
0.0194063
-0.00119855
0.00335204
0.000109336
-0.0012285
-0.00124193
-0.00383738
0.94964
-0.00886003
0.980377
-0.0124472
0.928357
-0.0149856
0.880112
-0.0165775
0.833145
-0.0178709
0.79068
-0.0189529
0.750327
-0.0201022
0.712847
-0.0213245
0.677475
-0.0223103
0.643905
-0.0233236
0.61259
-0.024465
0.583071
-0.0256572
0.555097
-0.0269909
0.528594
-0.028491
0.503314
-0.0300442
0.479188
-0.0316071
0.456149
-0.0331179
0.434204
-0.0345688
0.41324
-0.0359696
0.393192
-0.0373691
0.374015
-0.0387993
0.355703
-0.0403942
0.338469
-0.0419622
0.321858
-0.0434498
0.305959
-0.0449881
0.290894
-0.0465686
0.27653
-0.0481143
0.262744
-0.049674
0.249514
-0.0512009
0.236828
-0.0526702
0.224664
-0.0540941
0.213009
-0.0553897
0.201778
-0.0564659
0.190899
-0.0573821
0.180449
-0.0583457
0.170561
-0.0592514
0.161065
-0.0598293
0.151806
-0.0601565
0.143008
-0.0602459
0.134628
-0.0598778
0.126069
-0.058621
0.116861
-0.0551568
0.105394
-0.0475272
0.0890387
-0.033972
0.0646343
-0.0145826
0.0314861
-0.00338862
0.00821231
-0.00019004
0.000153452
0.0002535
-0.00167204
-0.000988432
-0.00376931
0.953409
-0.00890636
0.985514
-0.0130466
0.932497
-0.0164188
0.883484
-0.0186382
0.835364
-0.0199007
0.791943
-0.0205011
0.750927
-0.0208015
0.713147
-0.0210785
0.677752
-0.021518
0.644344
-0.0220231
0.613095
-0.0227743
0.583822
-0.0237704
0.556093
-0.0249201
0.529743
-0.0262441
0.504638
-0.0277503
0.480694
-0.0294449
0.457844
-0.0313473
0.436106
-0.0333676
0.41526
-0.0354056
0.39523
-0.037445
0.376054
-0.039463
0.357721
-0.0412922
0.340298
-0.0430955
0.323661
-0.0449298
0.307794
-0.0467172
0.292681
-0.0484726
0.278286
-0.0502207
0.264492
-0.0519477
0.251241
-0.0536735
0.238553
-0.0553501
0.226341
-0.0568979
0.214557
-0.0583381
0.203218
-0.0597696
0.19233
-0.0611597
0.181839
-0.0622083
0.171609
-0.0629192
0.161776
-0.0636095
0.152496
-0.0642866
0.143685
-0.0644525
0.134794
-0.0637679
0.125384
-0.0612899
0.114383
-0.0553881
0.0994922
-0.0435861
0.0772367
-0.0233384
0.0443867
-0.00662358
0.0147713
-0.000955718
0.00254445
0.00044254
-0.00124481
0.000342778
-0.00157228
-0.000645654
-0.00700902
0.960418
-0.0141641
0.992669
-0.0182727
0.936606
-0.0204085
0.88562
-0.0216572
0.836613
-0.0225003
0.792786
-0.022864
0.751291
-0.0227144
0.712998
-0.0224894
0.677527
-0.0225895
0.644444
-0.0228725
0.613378
-0.0233708
0.58432
-0.0241638
0.556886
-0.0253002
0.53088
-0.0267033
0.506041
-0.0283036
0.482294
-0.0299816
0.459522
-0.0316767
0.437801
-0.0334361
0.41702
-0.035224
0.397017
-0.0368916
0.377722
-0.0386065
0.359436
-0.0404136
0.342105
-0.0422124
0.32546
-0.043986
0.309567
-0.0458389
0.294534
-0.0477782
0.280225
-0.0497542
0.266468
-0.0517707
0.253257
-0.0537887
0.240571
-0.05584
0.228392
-0.0579555
0.216672
-0.0600309
0.205294
-0.0618432
0.194142
-0.0633244
0.18332
-0.064824
0.173109
-0.066398
0.16335
-0.0676829
0.153781
-0.068376
0.144378
-0.0683469
0.134765
-0.0668824
0.12392
-0.0624388
0.109939
-0.0521248
0.0891783
-0.0324463
0.0575581
-0.0116174
0.0235578
-0.00266615
0.00582
5.85657e-05
-0.00018027
0.000540655
-0.0017269
0.000300411
-0.00133204
-0.000345243
-0.00877813
0.969197
-0.0150152
0.998906
-0.0209666
0.942557
-0.0251757
0.889829
-0.0267842
0.838222
-0.0268034
0.792805
-0.0261035
0.750591
-0.0250307
0.711925
-0.0236837
0.67618
-0.0226614
0.643422
-0.0220842
0.612801
-0.0219884
0.584225
-0.0223682
0.557266
-0.0231464
0.531658
-0.0243327
0.507227
-0.0258728
0.483834
-0.0277753
0.461425
-0.0299323
0.439958
-0.0321987
0.419286
-0.0345735
0.399392
-0.0370249
0.380173
-0.0392386
0.361649
-0.0413169
0.344183
-0.0433719
0.327515
-0.0454087
0.311604
-0.0473964
0.296522
-0.0493933
0.282222
-0.0514391
0.268514
-0.0536083
0.255427
-0.0559128
0.242876
-0.0582397
0.230719
-0.0604633
0.218896
-0.0625524
0.207383
-0.0646631
0.196253
-0.066904
0.185561
-0.0688481
0.175053
-0.0702985
0.1648
-0.0714712
0.154954
-0.0722017
0.145109
-0.071794
0.134357
-0.0686299
0.120756
-0.0599261
0.101235
-0.0421022
0.0713544
-0.0187218
0.0341777
-0.0056115
0.0104475
-0.00139309
0.00160159
-0.000241791
-0.00133157
1.05402e-05
-0.00197923
4.40225e-05
-0.00136552
-0.00030122
-0.0155391
0.984736
-0.0240146
1.00738
-0.0285527
0.947095
-0.0301571
0.891433
-0.0314586
0.839523
-0.0317879
0.793134
-0.0309407
0.749744
-0.0295061
0.71049
-0.027694
0.674368
-0.0260194
0.641747
-0.0247896
0.611571
-0.0240194
0.583454
-0.0238987
0.557145
-0.024401
0.53216
-0.0254514
0.508278
-0.0269287
0.485311
-0.0286589
0.463155
-0.0306133
0.441912
-0.032686
0.421359
-0.0346732
0.40138
-0.0366314
0.382131
-0.0388055
0.363823
-0.040899
0.346277
-0.0428664
0.329482
-0.044835
0.313573
-0.0468725
0.29856
-0.0489615
0.284311
-0.0511645
0.270717
-0.0534384
0.2577
-0.0558203
0.245258
-0.0584164
0.233315
-0.0612476
0.221727
-0.0642239
0.210359
-0.0670449
0.199074
-0.069346
0.187862
-0.0714937
0.177201
-0.0736923
0.166999
-0.0754887
0.15675
-0.0760984
0.145719
-0.0740239
0.132283
-0.0673745
0.114106
-0.0522666
0.0861276
-0.0272788
0.0463665
-0.00960232
0.0165013
-0.00335714
0.00420234
-0.00138458
-0.000370972
-0.000740513
-0.00197564
-0.000440095
-0.00227965
-0.000192881
-0.00161274
-0.000494102
-0.0136104
0.998346
-0.024647
1.01842
-0.0349817
0.95743
-0.0407456
0.897197
-0.0415571
0.840335
-0.0403179
0.791895
-0.0377183
0.747144
-0.0346051
0.707377
-0.0311175
0.67088
-0.0277363
0.638366
-0.0250667
0.608902
-0.0232336
0.581621
-0.0222862
0.556198
-0.0222059
0.53208
-0.022886
0.508958
-0.0242671
0.486693
-0.0262416
0.465129
-0.0286127
0.444283
-0.0313018
0.424048
-0.0342737
0.404351
-0.0371095
0.384967
-0.0396719
0.366386
-0.0420511
0.348656
-0.0443301
0.331761
-0.0464508
0.315693
-0.0484463
0.300555
-0.0504809
0.286345
-0.0526243
0.27286
-0.0549895
0.260066
-0.0576128
0.247881
-0.0604173
0.23612
-0.0633255
0.224635
-0.0662069
0.21324
-0.0691108
0.201978
-0.0723361
0.191088
-0.0753503
0.180215
-0.0776948
0.169343
-0.0790677
0.158123
-0.078277
0.144928
-0.0738211
0.127827
-0.0609269
0.101212
-0.036417
0.0616177
-0.0139143
0.0238639
-0.00448579
0.0070727
-0.00106223
0.000778782
3.35395e-05
-0.00146675
0.00018497
-0.00212707
2.943e-06
-0.00209762
-0.000109976
-0.00149982
-0.000604078
-0.0214627
1.01981
-0.033132
1.03009
-0.041088
0.965386
-0.0452871
0.901396
-0.0475586
0.842606
-0.0475447
0.791881
-0.0453525
0.744952
-0.0419998
0.704024
-0.0380089
0.666889
-0.0337867
0.634144
-0.0300891
0.605204
-0.0272235
0.578756
-0.0252713
0.554245
-0.0244036
0.531212
-0.0245973
0.509152
-0.0255946
0.48769
-0.027195
0.46673
-0.0292015
0.44629
-0.0314913
0.426338
-0.0338861
0.406746
-0.0364201
0.387501
-0.03903
0.368996
-0.0415052
0.351131
-0.043793
0.334049
-0.0459189
0.317819
-0.0479674
0.302604
-0.0499246
0.288303
-0.0519467
0.274882
-0.0541333
0.262252
-0.0566012
0.250349
-0.0594676
0.238986
-0.0627718
0.22794
-0.0665466
0.217015
-0.0705684
0.206
-0.0741105
0.19463
-0.0772056
0.18331
-0.0797047
0.171842
-0.0806273
0.159045
-0.078519
0.14282
-0.0682018
0.117509
-0.0465523
0.0795627
-0.0196741
0.0347395
-0.00503419
0.00922392
0.00141367
0.000624841
0.00406769
-0.00187524
0.00451282
-0.00191188
0.00370806
-0.00132231
0.00219907
-0.000588631
0.000683122
1.61347e-05
7.90435e-05
-0.0191382
1.03895
-0.0367989
1.04775
-0.0533778
0.981965
-0.0612802
0.909299
-0.0635831
0.844909
-0.0620163
0.790314
-0.0572908
0.740227
-0.0511795
0.697913
-0.0449593
0.660669
-0.0384009
0.627586
-0.0323726
0.599176
-0.0276169
0.574
-0.0242495
0.550878
-0.0222633
0.529226
-0.0216795
0.508568
-0.0224201
0.488431
-0.0243581
0.468667
-0.0271286
0.449061
-0.0302865
0.429496
-0.0337192
0.410179
-0.0371064
0.390888
-0.0401695
0.372059
-0.0430631
0.354025
-0.0456291
0.336615
-0.0478517
0.320042
-0.0498019
0.304554
-0.051677
0.290178
-0.0536266
0.276832
-0.0557555
0.264381
-0.0581999
0.252793
-0.0610302
0.241817
-0.0642953
0.231205
-0.0678793
0.220599
-0.0716475
0.209768
-0.0759749
0.198957
-0.0801855
0.187521
-0.0826805
0.174337
-0.0817242
0.158089
-0.0742342
0.13533
-0.0577352
0.10101
-0.0276566
0.0494842
-0.00492427
0.0120072
0.00488483
-0.000585178
0.00972816
-0.00421848
0.0115222
-0.00366931
0.0111027
-0.00149231
0.00878979
0.000990552
0.00547193
0.00272923
0.00215269
0.00333538
0.00223173
-0.0271715
1.06612
-0.0414863
1.06206
-0.0551511
0.99563
-0.063393
0.91754
-0.0693471
0.850863
-0.0708027
0.79177
-0.0682981
0.737722
-0.0625941
0.692209
-0.0553842
0.653459
-0.0479851
0.620187
-0.0406566
0.591847
-0.0343765
0.56772
-0.0295612
0.546063
-0.0263489
0.526014
-0.0247951
0.507014
-0.0245066
0.488142
-0.025238
0.469399
-0.0268308
0.450653
-0.0294853
0.43215
-0.0325754
0.413269
-0.0359717
0.394285
-0.0393859
0.375473
-0.0426602
0.357299
-0.0455578
0.339513
-0.0480675
0.322552
-0.0500403
0.306527
-0.0516377
0.291775
-0.0531176
0.278312
-0.0547675
0.266031
-0.0568053
0.254831
-0.059443
0.244454
-0.0626564
0.234418
-0.0667476
0.22469
-0.0718969
0.214917
-0.0770127
0.204073
-0.080841
0.191349
-0.0822485
0.175745
-0.0779877
0.153828
-0.0663039
0.123646
-0.0376225
0.0723291
-0.0077612
0.0196229
0.00567235
-0.0014264
0.0119707
-0.00688354
0.0149033
-0.00715109
0.0161517
-0.00491773
0.0155678
-0.000908379
0.0127945
0.00376383
0.00858801
0.00693574
0.00366803
0.00825536
0.00589976
-0.0189557
1.08507
-0.0431888
1.0863
-0.0696289
1.02207
-0.0834695
0.931381
-0.0893877
0.856781
-0.0888418
0.791224
-0.084027
0.732907
-0.0762419
0.684424
-0.0662541
0.643471
-0.0560497
0.609982
-0.0460484
0.581846
-0.0370439
0.558715
-0.0297171
0.538736
-0.0245139
0.52081
-0.0217017
0.504202
-0.0210157
0.487456
-0.0224513
0.470834
-0.0251872
0.453389
-0.028465
0.435428
-0.0323876
0.417192
-0.0365304
0.398427
-0.0404858
0.379428
-0.0443447
0.361158
-0.0475705
0.342739
-0.0503124
0.325294
-0.0525436
0.308758
-0.054251
0.293483
-0.0556143
0.279675
-0.0569569
0.267374
-0.0585687
0.256443
-0.060722
0.246608
-0.0636695
0.237366
-0.0674949
0.228516
-0.0725942
0.220017
-0.0774337
0.208912
-0.0798429
0.193758
-0.0784472
0.174349
-0.0727049
0.148086
-0.0499234
0.100865
-0.0156421
0.0380477
0.00193808
0.0020427
0.00902403