/*--------------------------------*- C++ -*----------------------------------*\
| =========                 |                                                 |
| \\      /  F ield         | OpenFOAM: The Open Source CFD Toolbox           |
|  \\    /   O peration     | Version:  v1912                                 |
|   \\  /    A nd           | Website:  www.openfoam.com                      |
|    \\/     M anipulation  |                                                 |
\*---------------------------------------------------------------------------*/
FoamFile
{
    version     2.0;
    format      ascii;
    class       volVectorField;
    location    "0.34";
    object      U;
}
// * * * * * * * * * * * * * * * * * * * * * * * * * * * * * * * * * * * * * //

dimensions      [0 1 -1 0 0 0 0];


internalField   nonuniform List<vector> 
6600
(
(39.8356 -0.0553726 0)
(40.0566 -0.0962073 2.99141e-20)
(40.0832 -0.0618967 2.07206e-18)
(40.0946 -0.0408204 0)
(40.1016 -0.0112096 2.60075e-18)
(40.104 0.0240336 8.93446e-20)
(40.1075 0.0648514 -9.90922e-20)
(40.106 0.137289 -1.09916e-19)
(40.0872 0.236791 2.20719e-18)
(40.0764 0.345672 -1.6502e-19)
(40.0748 0.471221 0)
(40.0763 0.611048 -2.71555e-18)
(40.0761 0.766387 0)
(40.0674 0.93126 -3.122e-18)
(40.0538 1.10801 -4.0491e-18)
(40.0303 1.30235 -2.14203e-18)
(39.9877 1.51701 0)
(39.9342 1.74645 0)
(39.8868 1.99073 3.42107e-18)
(39.8462 2.24765 -3.29966e-18)
(39.7956 2.52115 -4.71842e-19)
(39.7152 2.8158 -1.65071e-18)
(39.6154 3.14209 -3.07382e-18)
(39.5387 3.5239 6.82468e-19)
(39.43 3.94425 2.37603e-18)
(39.2978 4.36644 0)
(39.1697 4.80557 5.86911e-18)
(39.0218 5.27211 0)
(38.8588 5.78263 -2.97536e-18)
(38.6727 6.35321 -1.95093e-18)
(38.4236 6.95275 -3.14197e-19)
(38.1895 7.58951 -2.42327e-18)
(38.0139 8.30306 -9.75863e-19)
(37.8485 9.06262 2.02204e-18)
(37.6213 9.85907 3.60974e-19)
(37.4 10.7191 2.40889e-18)
(37.1696 11.6905 4.53174e-18)
(36.9086 12.7683 4.56328e-18)
(36.7038 13.9167 -3.38118e-18)
(36.5288 15.1495 3.64616e-18)
(36.3459 16.4813 1.97068e-18)
(36.1723 17.9151 0)
(35.9984 19.4311 -6.34682e-19)
(35.843 21.072 1.54177e-18)
(35.7281 22.8034 0)
(35.6994 24.7164 -3.73616e-19)
(35.6037 26.6125 -1.04324e-18)
(35.8918 28.8345 0)
(34.3973 30.1003 0)
(25.4433 24.1339 -1.32397e-18)
(39.7045 -0.0672604 1.76426e-18)
(40.0919 -0.112467 -1.91517e-18)
(40.1077 -0.0619986 0)
(40.1181 -0.0300841 -3.62373e-20)
(40.1214 0.0114166 2.59566e-18)
(40.1147 0.0635469 8.84673e-20)
(40.111 0.122183 -1.62357e-22)
(40.1184 0.204068 -1.09711e-19)
(40.131 0.296266 0)
(40.1487 0.410769 -4.19501e-18)
(40.1611 0.545217 -1.50633e-19)
(40.1665 0.698965 2.66158e-18)
(40.1702 0.884067 2.77782e-18)
(40.1709 1.0867 1.7241e-18)
(40.1739 1.29993 -9.61633e-22)
(40.1797 1.52828 2.60035e-19)
(40.1683 1.76079 -2.29676e-18)
(40.1403 2.00428 0)
(40.094 2.26891 0)
(40.043 2.55548 3.34518e-18)
(39.9923 2.86086 4.61807e-19)
(39.9264 3.18436 -2.52505e-18)
(39.8606 3.52681 -2.25168e-18)
(39.7185 3.83072 -2.52164e-18)
(39.6192 4.16531 -2.08929e-18)
(39.5101 4.56902 -8.17435e-19)
(39.3929 5.02476 -9.8905e-19)
(39.2541 5.51877 -1.02868e-18)
(39.1103 6.05034 2.99719e-18)
(38.9907 6.60786 2.78852e-19)
(38.8875 7.23907 -3.7469e-18)
(38.7671 7.93129 3.37502e-18)
(38.6265 8.67404 2.4816e-18)
(38.4271 9.46217 -3.02693e-18)
(38.2488 10.31 3.87954e-19)
(38.1143 11.2391 -2.46373e-18)
(37.9604 12.2235 2.06997e-18)
(37.813 13.2616 -1.62776e-18)
(37.7004 14.3906 -1.1595e-18)
(37.6091 15.6165 -1.29843e-18)
(37.5281 16.9179 0)
(37.4698 18.303 0)
(37.4573 19.7752 -1.87453e-19)
(37.527 21.3638 9.4948e-20)
(37.6544 23.0344 -7.09874e-19)
(37.8505 24.849 3.85798e-19)
(38.0101 26.6694 2.90351e-18)
(38.4927 28.7892 0)
(37.0429 29.6146 -4.06762e-18)
(26.6926 23.2359 1.61221e-18)
(39.5731 -0.0496196 -3.21951e-20)
(40.157 -0.155743 1.9519e-18)
(40.1678 -0.0727253 2.0787e-18)
(40.175 -0.0328429 -2.24353e-22)
(40.1774 0.0205472 -1.55301e-19)
(40.1738 0.0845062 8.80603e-20)
(40.1846 0.181495 0)
(40.2021 0.300095 0)
(40.2011 0.434512 0)
(40.2003 0.578411 2.29521e-18)
(40.2116 0.731378 -1.48983e-19)
(40.2321 0.888467 -2.67935e-18)
(40.2476 1.05649 -1.34204e-18)
(40.2485 1.23554 3.08406e-18)
(40.2434 1.43447 1.80853e-18)
(40.238 1.65641 -2.56011e-19)
(40.2259 1.90336 4.84617e-18)
(40.2093 2.16306 -2.49934e-18)
(40.1953 2.42664 -2.78373e-18)
(40.1739 2.70332 0)
(40.1459 2.99787 -1.72792e-18)
(40.1021 3.3194 2.03431e-18)
(40.0493 3.68591 2.2787e-18)
(40.0339 4.12469 2.55347e-18)
(39.942 4.57163 2.17075e-18)
(39.8534 5.01133 -3.17568e-19)
(39.7748 5.48109 -4.28622e-19)
(39.6937 5.98031 -1.3265e-18)
(39.6004 6.53164 -5.28886e-19)
(39.4704 7.13134 1.89652e-18)
(39.3059 7.74824 6.43511e-19)
(39.1684 8.40813 0)
(39.1098 9.14942 -3.01212e-18)
(39.0747 9.94233 7.89604e-19)
(38.9716 10.7695 1.7054e-18)
(38.8957 11.6492 2.43723e-18)
(38.8344 12.621 -1.26526e-18)
(38.7583 13.6816 -9.45836e-19)
(38.7512 14.8001 4.63653e-19)
(38.7938 15.9891 0)
(38.8604 17.2588 -1.46519e-19)
(38.9668 18.607 0)
(39.1047 20.0186 0)
(39.2822 21.5279 1.0024e-18)
(39.5379 23.1012 6.26604e-19)
(39.9092 24.8164 -2.01509e-18)
(40.2716 26.562 -1.96602e-18)
(40.8365 28.3967 0)
(39.2919 28.802 -2.76809e-18)
(27.5713 21.9261 2.91698e-18)
(39.4561 -0.0532904 -1.74427e-18)
(40.2037 -0.131859 1.46439e-20)
(40.2017 -0.02612 -2.13858e-18)
(40.2067 0.0217113 -2.2266e-18)
(40.2007 0.0894639 -2.49687e-18)
(40.1923 0.169339 -1.3382e-18)
(40.2107 0.262358 -9.71413e-20)
(40.241 0.37616 0)
(40.265 0.501227 1.88674e-18)
(40.2931 0.642921 2.22472e-18)
(40.317 0.806237 -1.4706e-19)
(40.3392 0.996063 -1.63183e-19)
(40.3636 1.2065 -1.28776e-18)
(40.3862 1.41777 -2.48311e-19)
(40.4108 1.64013 1.66609e-19)
(40.426 1.8563 -2.49679e-19)
(40.4301 2.09731 1.92461e-19)
(40.4179 2.36911 2.83047e-18)
(40.3942 2.67061 3.80681e-18)
(40.3763 2.98029 0)
(40.3495 3.30875 9.83028e-20)
(40.322 3.65509 0)
(40.273 4.0087 0)
(40.1863 4.34389 -5.79419e-19)
(40.1585 4.71592 1.87046e-18)
(40.1002 5.15484 1.84499e-18)
(40.0412 5.63266 -3.93901e-19)
(39.9685 6.15591 1.82796e-18)
(39.9031 6.71162 0)
(39.8902 7.30264 0)
(39.8735 7.96391 9.97217e-19)
(39.8458 8.67496 0)
(39.793 9.42126 7.91602e-19)
(39.7237 10.2219 1.28267e-18)
(39.7014 11.0871 -2.21012e-18)
(39.7151 12.0227 -2.13558e-18)
(39.7377 12.9799 1.59636e-18)
(39.7847 13.9833 -5.824e-19)
(39.8751 15.0759 3.67785e-19)
(40.0134 16.2516 4.35341e-19)
(40.1817 17.4681 -4.1959e-19)
(40.3997 18.742 0)
(40.6891 20.0758 0)
(41.0905 21.497 -8.14828e-19)
(41.5781 22.969 -2.06154e-18)
(42.1428 24.5395 -8.21748e-19)
(42.7193 26.1879 -3.90092e-18)
(43.3009 27.7937 4.3098e-18)
(41.4445 27.7538 6.31789e-18)
(28.0956 20.3357 0)
(39.3244 -0.0437741 -6.56998e-21)
(40.2774 -0.154116 1.83476e-18)
(40.2782 -0.0249463 1.99225e-18)
(40.2847 0.0240696 2.30451e-18)
(40.2876 0.107199 0)
(40.2972 0.210225 2.65487e-20)
(40.3282 0.359545 0)
(40.3609 0.498308 -1.05639e-19)
(40.3681 0.658763 -3.63226e-18)
(40.3762 0.823334 -2.23339e-18)
(40.4024 0.984063 1.44396e-19)
(40.4388 1.14538 1.59722e-19)
(40.4669 1.32823 -1.77754e-19)
(40.4822 1.53277 -1.59975e-18)
(40.4952 1.75785 -3.70301e-18)
(40.511 2.00173 2.42475e-19)
(40.5241 2.24131 -4.28566e-18)
(40.5387 2.49117 2.96531e-19)
(40.5436 2.77085 -1.35316e-18)
(40.5471 3.07094 -7.27769e-19)
(40.5568 3.38606 2.06518e-18)
(40.5502 3.7334 0)
(40.5647 4.12945 0)
(40.5754 4.59962 -1.01877e-18)
(40.529 5.07626 -1.24013e-18)
(40.5126 5.54087 1.51733e-18)
(40.498 6.03775 -3.53769e-19)
(40.4946 6.55499 0)
(40.4794 7.13077 3.95985e-19)
(40.4153 7.73828 -4.4123e-19)
(40.3564 8.36291 -1.01355e-18)
(40.3308 9.03956 -1.23321e-18)
(40.398 9.78517 4.94675e-19)
(40.4886 10.5769 -4.18949e-19)
(40.5238 11.3941 4.66196e-19)
(40.611 12.2597 0)
(40.7322 13.2132 -4.2984e-19)
(40.8557 14.2234 1.64894e-19)
(41.0538 15.2658 -3.15439e-20)
(41.3162 16.3699 -1.78527e-19)
(41.6366 17.5358 5.84336e-19)
(42.0138 18.7459 0)
(42.4337 19.9929 0)
(42.9002 21.2953 -2.00979e-18)
(43.4652 22.6219 4.34902e-18)
(44.1491 24.0523 1.09251e-18)
(44.8398 25.5954 2.48492e-18)
(45.3159 26.8477 -5.47909e-18)
(42.9909 26.3811 5.467e-19)
(28.096 18.4415 -8.99259e-18)
(39.205 -0.0313453 1.65724e-18)
(40.3296 -0.0982944 -4.52317e-20)
(40.3239 0.058954 -2.03017e-18)
(40.3389 0.116225 1.09419e-18)
(40.333 0.218881 0)
(40.3414 0.32774 1.41595e-18)
(40.3843 0.447159 -4.7106e-20)
(40.4295 0.576115 -1.64078e-18)
(40.4701 0.721594 1.86333e-18)
(40.507 0.887664 0)
(40.5453 1.08536 1.40307e-19)
(40.5853 1.29035 1.06646e-18)
(40.635 1.49776 -1.52074e-18)
(40.6782 1.70673 1.91013e-19)
(40.7195 1.92462 1.92979e-18)
(40.7621 2.17458 -2.33433e-19)
(40.7843 2.44148 1.36866e-18)
(40.8024 2.72811 -2.83907e-19)
(40.8117 3.03082 3.08715e-19)
(40.8132 3.35163 9.62766e-19)
(40.8146 3.69584 1.24087e-18)
(40.8282 4.05889 4.25685e-21)
(40.7881 4.40154 4.46912e-19)
(40.7963 4.7484 1.68812e-18)
(40.8169 5.14865 0)
(40.8231 5.61395 -1.21274e-18)
(40.8341 6.11105 2.91642e-19)
(40.8428 6.65446 -1.92504e-20)
(40.8658 7.21617 -8.68077e-20)
(40.9667 7.8247 3.52841e-19)
(41.0502 8.49622 -5.45908e-19)
(41.127 9.2025 8.01718e-19)
(41.1775 9.93304 0)
(41.2471 10.711 0)
(41.3925 11.558 0)
(41.5521 12.4551 0)
(41.7428 13.3529 4.3563e-19)
(41.9839 14.2941 -8.68609e-19)
(42.2789 15.3031 0)
(42.6327 16.3607 5.26033e-20)
(43.0282 17.4351 -3.0239e-19)
(43.4761 18.5427 -2.92377e-18)
(44.0066 19.6808 1.5969e-18)
(44.6666 20.8664 0)
(45.4188 22.0651 1.78528e-18)
(46.2251 23.3266 -6.69712e-18)
(47.0191 24.7217 4.70009e-18)
(47.3398 25.7182 3.74776e-18)
(44.3039 24.773 1.37715e-17)
(27.5712 16.2754 -1.0388e-17)
(39.091 -0.0314156 -1.65508e-18)
(40.4226 -0.114007 -3.56178e-18)
(40.4248 0.0576594 3.07254e-20)
(40.4536 0.112124 -1.09938e-18)
(40.4649 0.234633 1.15177e-18)
(40.5017 0.385082 -4.14888e-20)
(40.5493 0.547664 1.49696e-18)
(40.587 0.707924 1.64735e-18)
(40.6046 0.880224 1.82139e-18)
(40.6319 1.04403 -6.21506e-20)
(40.6799 1.20835 -1.07146e-18)
(40.731 1.39091 -4.98016e-20)
(40.7774 1.60207 1.35647e-18)
(40.8167 1.82538 0)
(40.8548 2.05842 0)
(40.8945 2.29315 1.09302e-19)
(40.9397 2.53496 1.80724e-18)
(40.9881 2.79827 0)
(41.0237 3.08878 1.42605e-19)
(41.0631 3.38888 -1.47701e-18)
(41.106 3.71084 -1.2716e-18)
(41.1508 4.0791 4.99916e-19)
(41.2386 4.50933 0)
(41.2775 4.99749 -9.14172e-19)
(41.3039 5.47056 -2.17064e-19)
(41.3543 5.94707 2.42166e-19)
(41.4173 6.4544 0)
(41.4995 6.97951 0)
(41.5628 7.5587 -4.14309e-19)
(41.5776 8.15947 -9.6158e-20)
(41.6265 8.77586 7.35013e-19)
(41.7217 9.44468 -2.02117e-19)
(41.9165 10.1723 -6.30655e-20)
(42.1301 10.9268 3.04975e-20)
(42.3078 11.6882 3.89024e-19)
(42.5527 12.4936 3.54525e-19)
(42.8391 13.3752 -3.26578e-19)
(43.1417 14.2898 6.13035e-19)
(43.5194 15.2168 -1.51394e-18)
(43.9671 16.18 6.48779e-20)
(44.4857 17.1812 -3.77645e-19)
(45.0652 18.1986 1.52063e-18)
(45.6908 19.2275 2.55599e-18)
(46.3514 20.2731 -2.83939e-18)
(47.1031 21.3065 1.83293e-18)
(47.9552 22.4177 0)
(48.7446 23.6731 3.00723e-18)
(48.7642 24.2613 4.7636e-18)
(44.7976 22.8643 -9.72996e-18)
(26.3334 13.8651 -3.10072e-18)
(38.9962 -0.0355487 1.58361e-18)
(40.5002 -0.0429751 1.75415e-18)
(40.5052 0.165936 1.51306e-20)
(40.5499 0.234288 -1.04944e-18)
(40.5418 0.377289 -2.35931e-18)
(40.5806 0.490053 1.32379e-18)
(40.6349 0.624098 -2.91509e-18)
(40.7014 0.768055 7.78246e-19)
(40.7568 0.937876 -1.77231e-18)
(40.8058 1.1239 -9.99748e-19)
(40.8602 1.32422 2.23897e-18)
(40.9272 1.52021 -1.32905e-18)
(40.9968 1.72345 -1.23294e-18)
(41.0645 1.93837 1.61219e-21)
(41.1405 2.17681 -6.36746e-19)
(41.2067 2.44857 7.94386e-19)
(41.2589 2.72866 -9.35535e-19)
(41.3199 3.02177 0)
(41.3768 3.3322 0)
(41.4087 3.67527 0)
(41.4541 4.02141 -1.47077e-19)
(41.4942 4.36897 -5.28924e-19)
(41.5087 4.7117 -4.43779e-19)
(41.5878 5.04251 -1.81632e-19)
(41.6627 5.45894 0)
(41.7345 5.92708 0)
(41.8202 6.42693 2.81953e-19)
(41.9184 6.97119 -1.49267e-19)
(42.0543 7.53055 -1.02658e-19)
(42.251 8.13054 1.24202e-19)
(42.439 8.7841 6.49573e-20)
(42.6279 9.45648 2.16957e-19)
(42.7877 10.1444 -7.55603e-20)
(42.9955 10.8734 4.3818e-19)
(43.285 11.6655 -2.56713e-19)
(43.5746 12.4844 -9.0335e-20)
(43.9056 13.2805 1.92866e-19)
(44.3024 14.1078 6.38137e-19)
(44.7608 14.9811 6.00871e-19)
(45.2749 15.8737 1.15691e-18)
(45.8225 16.7602 -3.64883e-19)
(46.4132 17.6565 2.40382e-18)
(47.0851 18.5569 -2.67381e-18)
(47.8932 19.4748 0)
(48.7864 20.3852 0)
(49.717 21.3751 0)
(50.4069 22.3215 0)
(50.0937 22.7049 0)
(44.8968 20.7854 -5.82708e-18)
(24.3618 11.2804 9.5433e-18)
(38.916 -0.0197771 -1.58683e-18)
(40.6379 -0.0594901 0)
(40.6501 0.144903 0)
(40.6983 0.204086 1.0702e-18)
(40.7285 0.398998 1.15017e-18)
(40.781 0.546857 -1.32628e-18)
(40.8348 0.710169 1.46162e-18)
(40.8745 0.879755 -7.80725e-19)
(40.9204 1.04695 8.26494e-19)
(40.9629 1.21544 1.00089e-18)
(41.0334 1.39494 -1.03632e-18)
(41.1072 1.5973 1.00562e-18)
(41.1812 1.81484 1.82338e-18)
(41.2396 2.03949 0)
(41.3061 2.25761 7.36174e-19)
(41.3862 2.48948 -8.9236e-19)
(41.4637 2.73922 4.05653e-21)
(41.5463 3.01386 -8.21819e-19)
(41.6359 3.30244 9.90336e-19)
(41.7275 3.60415 0)
(41.8205 3.94763 0)
(41.9418 4.33561 4.73567e-19)
(42.0853 4.7786 1.41764e-19)
(42.1783 5.27328 -4.51792e-19)
(42.2908 5.72184 -1.19422e-19)
(42.4097 6.18972 3.11866e-19)
(42.5497 6.68172 -4.17827e-19)
(42.7112 7.1964 1.2556e-19)
(42.8265 7.74944 -7.31062e-20)
(42.9498 8.32285 -1.3086e-20)
(43.101 8.90644 2.4399e-20)
(43.3039 9.54093 -6.50236e-20)
(43.6132 10.2181 2.92776e-19)
(43.94 10.9065 -3.58756e-19)
(44.239 11.5817 0)
(44.6056 12.2884 -5.61904e-19)
(45.0178 13.0564 -5.44032e-19)
(45.4526 13.8389 2.1007e-19)
(45.9488 14.6168 1.56093e-18)
(46.5101 15.4066 -1.49039e-18)
(47.1418 16.2109 -3.43137e-19)
(47.8349 17.0079 -2.85525e-18)
(48.5723 17.7949 6.79278e-18)
(49.3218 18.5695 5.22229e-19)
(50.1448 19.318 6.24264e-19)
(51.072 20.2043 -2.78911e-18)
(51.529 20.8393 0)
(50.6222 20.9232 5.28089e-18)
(43.9022 18.4604 -2.76161e-18)
(21.5431 8.63816 0)
(38.8797 0.00469781 5.91214e-21)
(40.7549 0.00708992 -5.53237e-23)
(40.7694 0.272486 -9.206e-19)
(40.8192 0.322181 0)
(40.8305 0.503291 -1.74232e-20)
(40.883 0.616785 -5.87488e-19)
(40.9524 0.764236 0)
(41.0338 0.916926 7.28439e-19)
(41.1016 1.09002 -8.79161e-19)
(41.1682 1.27603 5.59545e-20)
(41.2385 1.46275 9.39977e-19)
(41.3313 1.65283 -5.06173e-19)
(41.4335 1.857 -6.57976e-19)
(41.5381 2.08632 0)
(41.6409 2.34193 0)
(41.7395 2.61018 0)
(41.8358 2.88859 -6.05211e-19)
(41.9411 3.17425 8.24633e-19)
(42.0332 3.49643 -1.35088e-18)
(42.1145 3.8286 9.88883e-20)
(42.2102 4.16169 -2.09327e-19)
(42.3019 4.50497 -3.66109e-19)
(42.3966 4.83113 7.9665e-19)
(42.5379 5.15859 5.92526e-19)
(42.6728 5.59052 0)
(42.815 6.04312 -2.00408e-19)
(42.98 6.52138 1.33504e-19)
(43.1642 7.03802 -4.87849e-20)
(43.4203 7.57249 -7.12302e-20)
(43.697 8.14361 5.57555e-20)
(43.9807 8.75479 -1.44582e-19)
(44.2721 9.36653 6.25804e-19)
(44.5257 9.98351 -7.31946e-19)
(44.8346 10.6365 1.21773e-18)
(45.2268 11.345 5.64402e-19)
(45.6177 12.0599 -1.37835e-18)
(46.0452 12.7339 1.83183e-18)
(46.5347 13.4176 -1.26634e-18)
(47.0889 14.1261 3.48036e-20)
(47.6894 14.835 0)
(48.31 15.5237 2.27664e-18)
(48.9563 16.2018 1.63472e-18)
(49.6695 16.8618 2.17197e-19)
(50.5234 17.5159 -4.79604e-18)
(51.46 18.1663 -2.3299e-19)
(52.3611 18.9103 -3.36842e-18)
(52.5393 19.2242 0)
(50.8974 19.048 5.61125e-18)
(42.3443 16.0411 -9.39526e-18)
(17.8382 5.96449 0)
(38.8698 0.0274442 0)
(40.91 -0.0334366 0)
(40.9607 0.238181 4.8344e-19)
(41.0068 0.28233 -3.0989e-20)
(41.0419 0.507976 5.55372e-19)
(41.1029 0.642699 6.08094e-19)
(41.1628 0.808061 0)
(41.2208 0.977332 -7.3011e-19)
(41.2907 1.14469 7.62944e-19)
(41.3518 1.31348 0)
(41.4422 1.4988 -1.3878e-18)
(41.5412 1.69759 -3.22646e-20)
(41.6327 1.90393 -6.47044e-20)
(41.7234 2.10811 7.21415e-20)
(41.8326 2.3155 0)
(41.9446 2.54909 0)
(42.0603 2.7997 4.34157e-19)
(42.19 3.06712 2.62879e-19)
(42.3488 3.34879 6.92168e-20)
(42.4961 3.65612 3.87858e-20)
(42.6462 4.00391 -7.97437e-20)
(42.8304 4.37845 4.06904e-20)
(43.0285 4.83204 -3.25898e-19)
(43.2003 5.29744 -1.21794e-19)
(43.3924 5.71529 -2.7761e-20)
(43.5849 6.16239 -8.43908e-20)
(43.8012 6.63632 -1.39756e-20)
(44.0287 7.11892 1.98673e-19)
(44.2103 7.63885 0)
(44.417 8.15983 0)
(44.6546 8.687 0)
(44.9381 9.26251 -4.68561e-19)
(45.3366 9.86878 -4.18902e-19)
(45.7526 10.4757 -4.1898e-19)
(46.1374 11.049 7.34227e-19)
(46.5741 11.6361 9.40192e-19)
(47.0587 12.271 -4.06858e-19)
(47.5715 12.9156 1.41179e-18)
(48.12 13.5408 -8.37736e-19)
(48.7187 14.1521 -1.17345e-18)
(49.3796 14.7572 -1.46971e-18)
(50.1023 15.3415 1.63878e-18)
(50.8743 15.9014 0)
(51.6312 16.4318 2.7442e-18)
(52.4835 16.9903 -1.53765e-18)
(53.0744 17.4351 1.90577e-18)
(52.9397 17.592 0)
(50.1262 16.9954 -2.86057e-18)
(39.26 13.3365 1.68289e-18)
(13.151 3.36568 0)
(38.8807 0.0312018 3.49141e-19)
(41.0524 0.0261425 0)
(41.0871 0.322524 8.81529e-19)
(41.1399 0.359577 -4.76424e-19)
(41.1643 0.568608 -5.38931e-19)
(41.2296 0.678982 1.79625e-20)
(41.315 0.829793 -1.9991e-20)
(41.4033 0.981823 0)
(41.49 1.14671 -7.41461e-19)
(41.5745 1.32241 3.67124e-19)
(41.669 1.49967 4.46204e-19)
(41.7964 1.68335 -5.06951e-19)
(41.9362 1.88639 2.36854e-19)
(42.0615 2.11657 6.43531e-20)
(42.1929 2.3583 -3.4757e-20)
(42.3347 2.60874 0)
(42.4729 2.86976 3.37129e-19)
(42.6105 3.14911 -3.44513e-19)
(42.7456 3.45723 1.00739e-19)
(42.8891 3.76353 -6.65749e-21)
(43.0352 4.07777 -3.08196e-20)
(43.185 4.40526 0)
(43.3447 4.68188 -5.9821e-21)
(43.5447 5.02323 5.19657e-20)
(43.747 5.44524 9.49889e-21)
(43.959 5.87192 8.48814e-20)
(44.2046 6.31291 0)
(44.4857 6.79857 -1.57357e-19)
(44.8153 7.28059 -5.20165e-19)
(45.1613 7.80296 3.03051e-19)
(45.5272 8.35469 -7.66856e-19)
(45.8985 8.8955 -4.17685e-19)
(46.2182 9.43175 8.04693e-19)
(46.5845 9.99371 -2.96051e-19)
(47.0292 10.6038 -7.40605e-19)
(47.4804 11.2107 -3.9561e-19)
(47.9592 11.7718 -5.92838e-19)
(48.4763 12.3133 0)
(49.0604 12.8604 -1.06449e-18)
(49.6823 13.3991 2.36026e-18)
(50.3098 13.91 1.48989e-18)
(50.9435 14.3906 -1.80125e-18)
(51.6152 14.837 2.40622e-18)
(52.4435 15.2813 -1.24542e-18)
(53.3707 15.762 3.2134e-18)
(53.6878 15.9455 5.37842e-20)
(53.0277 15.8579 0)
(48.8029 14.7623 5.91247e-18)
(35.6137 10.5379 -5.05509e-18)
(8.2162 1.03403 -1.89378e-18)
(38.8971 0.0423868 -3.49428e-19)
(41.2665 -0.0307395 3.81456e-19)
(41.311 0.283414 -4.3213e-19)
(41.3621 0.304252 4.69615e-19)
(41.3982 0.541242 2.55031e-19)
(41.4599 0.655565 1.7585e-20)
(41.5305 0.826783 -9.67964e-21)
(41.6093 0.985169 0)
(41.6927 1.14345 3.27823e-19)
(41.7828 1.3025 -5.55618e-19)
(41.8907 1.47837 0)
(42.0075 1.66164 2.60648e-20)
(42.1338 1.84121 -7.57155e-20)
(42.2724 2.02386 -1.91538e-19)
(42.4118 2.22569 2.52175e-19)
(42.5565 2.44593 -3.5151e-21)
(42.7174 2.6837 -3.12865e-20)
(42.9077 2.92681 0)
(43.1081 3.19607 1.52014e-19)
(43.3179 3.49348 -7.01121e-20)
(43.5156 3.81923 9.25541e-21)
(43.7573 4.17324 0)
(44.0177 4.63061 0)
(44.2578 5.02582 2.2175e-20)
(44.5053 5.40683 2.6955e-20)
(44.7582 5.82109 -2.44723e-19)
(45.0239 6.27055 1.06496e-19)
(45.3171 6.70701 -6.71444e-20)
(45.5675 7.18348 2.41436e-19)
(45.8476 7.64939 1.25813e-19)
(46.1394 8.11717 4.41581e-19)
(46.473 8.62062 -5.49848e-19)
(46.9264 9.15074 3.75185e-19)
(47.3984 9.67541 -4.02405e-19)
(47.8352 10.1546 -5.01916e-19)
(48.2956 10.6287 -5.47565e-19)
(48.7946 11.1312 0)
(49.3364 11.6531 1.42308e-18)
(49.8834 12.1466 -5.32684e-19)
(50.4567 12.6045 -1.31022e-18)
(51.0781 13.036 1.59029e-18)
(51.7589 13.4425 -6.2102e-20)
(52.5107 13.8229 -1.26882e-18)
(53.277 14.2085 -2.28131e-20)
(53.7971 14.4557 -1.65745e-18)
(53.7552 14.4632 -4.26198e-18)
(52.2553 14.0813 2.4258e-18)
(46.0898 12.3375 0)
(30.246 7.37429 -3.45271e-18)
(5.11584 -0.149432 6.60891e-18)
(38.9141 0.0418054 -6.63434e-22)
(41.4089 0.0224772 -3.83941e-19)
(41.4545 0.339438 1.00857e-19)
(41.505 0.355555 3.62079e-21)
(41.5306 0.579929 -2.55172e-19)
(41.6066 0.667393 0)
(41.6918 0.809561 0)
(41.7872 0.948065 9.79391e-21)
(41.8963 1.0987 -5.29068e-19)
(41.9939 1.25412 1.86877e-19)
(42.1246 1.40895 -1.16189e-20)
(42.2877 1.5811 2.50086e-20)
(42.4431 1.77656 -1.42675e-19)
(42.6013 1.98605 1.3574e-19)
(42.7787 2.19731 -3.22612e-19)
(42.9542 2.42303 4.68084e-20)
(43.1234 2.66138 -4.24546e-20)
(43.3023 2.91985 -8.85451e-21)
(43.4796 3.19378 9.94154e-20)
(43.6672 3.46292 5.19824e-20)
(43.8721 3.76002 5.11511e-21)
(44.0682 4.04816 -2.15543e-21)
(44.2867 4.27044 0)
(44.5337 4.63042 -5.42535e-20)
(44.7957 5.00547 5.19498e-21)
(45.0746 5.39041 4.67769e-21)
(45.4028 5.78354 3.23713e-20)
(45.7373 6.22424 1.0722e-19)
(46.1277 6.65498 0)
(46.5157 7.12276 9.01348e-20)
(46.9386 7.61131 5.25243e-19)
(47.3673 8.08722 5.05985e-19)
(47.7301 8.55333 -2.76405e-19)
(48.1201 9.03081 6.3161e-19)
(48.5649 9.54505 -5.35293e-19)
(49.0308 10.0595 -3.44923e-19)
(49.5293 10.5399 0)
(50.0238 10.9673 -9.50862e-19)
(50.5815 11.3817 -6.29384e-19)
(51.1717 11.7841 7.0305e-19)
(51.7547 12.1584 -8.58297e-19)
(52.3313 12.4855 1.03673e-18)
(52.9174 12.7872 0)
(53.6916 13.1152 7.20965e-19)
(53.9551 13.1837 0)
(53.5983 13.0751 1.09914e-18)
(50.7691 12.2795 -2.50869e-18)
(42.2812 9.85255 1.4303e-18)
(24.1238 4.41272 0)
(2.73541 -0.416523 4.50846e-19)
(38.9198 0.0499092 -8.19553e-23)
(41.6398 -0.0407916 -9.01306e-23)
(41.6799 0.271897 -1.03928e-19)
(41.718 0.267497 -4.36796e-22)
(41.7483 0.512797 -3.34248e-21)
(41.8174 0.600559 -5.14441e-22)
(41.8955 0.76026 5.7263e-22)
(41.9856 0.893716 -1.1835e-21)
(42.0852 1.02445 1.69507e-19)
(42.1939 1.16752 2.67984e-21)
(42.3081 1.32507 1.36843e-21)
(42.4574 1.46616 -2.92706e-21)
(42.6303 1.6142 -9.79911e-20)
(42.7928 1.78059 1.00181e-19)
(42.9691 1.96084 1.02497e-19)
(43.1623 2.1601 -4.71187e-20)
(43.3686 2.36769 4.1158e-20)
(43.6051 2.58311 7.54037e-22)
(43.8597 2.83519 3.49492e-22)
(44.1159 3.10731 0)
(44.3576 3.38763 -9.30322e-22)
(44.6459 3.73233 -9.73936e-22)
(44.9605 4.14668 1.08709e-21)
(45.2542 4.4623 0)
(45.5457 4.81532 0)
(45.8294 5.19747 1.12874e-19)
(46.1465 5.59851 0)
(46.4863 5.99688 -1.07364e-19)
(46.7865 6.42608 0)
(47.1249 6.83955 6.51562e-21)
(47.4594 7.25633 -2.48142e-19)
(47.8152 7.69782 1.84347e-20)
(48.2843 8.15922 -3.91882e-19)
(48.7726 8.61417 3.64291e-20)
(49.2373 9.02987 2.42671e-19)
(49.6972 9.42029 3.88833e-19)
(50.1643 9.81072 -1.41598e-20)
(50.6925 10.2348 0)
(51.203 10.637 -1.0269e-20)
(51.7093 10.9916 1.22924e-20)
(52.2442 11.2993 0)
(52.8298 11.5929 -1.74097e-20)
(53.5992 11.9092 -8.04415e-20)
(53.9863 12.054 -6.38785e-19)
(53.8767 12.0486 -1.42577e-20)
(52.5569 11.6965 0)
(48.0026 10.5828 0)
(36.5313 7.64297 2.00981e-19)
(14.6532 1.79649 -1.98789e-19)
(0.808183 -0.225749 4.50065e-19)
(38.9541 0.0626418 -1.67345e-19)
(41.7946 0.0154781 -1.83749e-19)
(41.8347 0.34737 -1.00083e-19)
(41.8629 0.319466 -1.12692e-19)
(41.8789 0.527157 -1.13684e-19)
(41.941 0.58265 1.27038e-19)
(42.0328 0.71074 0)
(42.1327 0.823844 0)
(42.2467 0.945638 -7.98378e-20)
(42.376 1.05977 -2.67951e-21)
(42.5288 1.19135 8.11645e-20)
(42.6938 1.3494 5.82568e-21)
(42.8824 1.50708 8.21792e-20)
(43.079 1.67566 -7.86677e-20)
(43.2826 1.85263 -8.10761e-20)
(43.491 2.04158 0)
(43.6984 2.25528 0)
(43.9142 2.47591 -7.53916e-22)
(44.1324 2.70399 -3.49374e-22)
(44.3656 2.93925 -2.09327e-20)
(44.6142 3.20092 9.29804e-22)
(44.852 3.42933 0)
(45.1197 3.6452 0)
(45.4242 3.98643 -2.37083e-20)
(45.7447 4.31208 -1.32889e-19)
(46.0985 4.64088 4.09301e-20)
(46.4611 4.99737 0)
(46.8436 5.37829 -1.4468e-19)
(47.2683 5.75759 0)
(47.677 6.17495 -6.51398e-21)
(48.1257 6.60906 0)
(48.5919 7.03658 0)
(48.9936 7.45749 1.1187e-19)
(49.3948 7.87837 1.38216e-19)
(49.8082 8.31413 0)
(50.249 8.76101 0)
(50.7444 9.20266 1.41528e-20)
(51.1915 9.56917 0)
(51.6818 9.89651 1.02629e-20)
(52.2037 10.2112 -4.20682e-19)
(52.7121 10.5135 4.91609e-19)
(53.2472 10.7793 4.77554e-20)
(53.7163 11.0196 3.27261e-20)
(53.7676 11.0846 -7.2046e-19)
(53.3215 10.9807 -4.61555e-19)
(50.9299 10.4983 2.64523e-18)
(43.8434 8.89988 -1.20056e-18)
(28.7152 5.311 -1.40979e-18)
(7.58098 0.45276 1.15807e-18)
(-0.186514 0.0252228 0)
(38.9586 0.0572593 1.67255e-19)
(41.955 -0.0678733 -1.81786e-19)
(42.021 0.252675 9.84285e-20)
(42.0501 0.228552 -1.11339e-19)
(42.0713 0.461738 1.21192e-19)
(42.131 0.506521 -1.31135e-19)
(42.1905 0.639958 -8.60139e-21)
(42.286 0.725415 9.57683e-21)
(42.3946 0.830226 7.01998e-20)
(42.5032 0.942109 1.068e-20)
(42.6488 1.03867 -8.63285e-20)
(42.826 1.14048 -1.71905e-19)
(43.0096 1.2591 8.20173e-20)
(43.2064 1.3897 7.51475e-20)
(43.4182 1.53786 2.3466e-19)
(43.6472 1.69492 -6.5086e-21)
(43.8954 1.86568 7.26508e-21)
(44.1747 2.05373 -1.71952e-20)
(44.4781 2.27712 3.79821e-21)
(44.7755 2.50969 1.66663e-20)
(45.0735 2.76165 0)
(45.4014 3.07707 0)
(45.7429 3.39749 0)
(46.0755 3.67708 0)
(46.3982 3.99275 1.26672e-19)
(46.7338 4.34311 -3.82276e-19)
(47.0932 4.69008 0)
(47.4668 5.05125 4.64006e-19)
(47.8047 5.43768 0)
(48.1888 5.81145 0)
(48.5627 6.19573 -6.30554e-19)
(48.9305 6.59379 3.93772e-19)
(49.3836 7.00308 -9.2182e-19)
(49.8579 7.41181 2.67907e-19)
(50.3349 7.80398 0)
(50.7965 8.16192 0)
(51.2156 8.4807 5.09275e-19)
(51.6978 8.83415 -1.76889e-18)
(52.1605 9.1935 0)
(52.5876 9.51087 -1.2872e-18)
(53.0359 9.77297 1.936e-18)
(53.6147 10.1049 -2.16216e-18)
(53.8301 10.2168 1.24317e-18)
(53.7852 10.2342 -1.60331e-18)
(52.3601 10.0852 4.0988e-18)
(47.8046 9.16805 -3.64082e-18)
(37.3748 6.8861 2.41313e-18)
(18.4394 2.54537 -5.3857e-18)
(3.45861 0.0207693 6.41522e-18)
(-0.838461 0.100613 -4.11775e-18)
(39.0053 0.0472675 3.31501e-19)
(42.1118 -0.00663988 -2.14363e-21)
(42.1377 0.306413 0)
(42.151 0.260003 2.21711e-19)
(42.1552 0.463345 5.05097e-19)
(42.2101 0.474416 -1.66635e-20)
(42.2945 0.575496 0)
(42.3879 0.649682 0)
(42.5058 0.714678 1.91959e-20)
(42.6387 0.795597 -2.13839e-20)
(42.79 0.901816 3.42961e-19)
(42.9787 1.00489 -1.73374e-19)
(43.1918 1.11411 -1.69097e-19)
(43.4076 1.23572 1.59567e-19)
(43.6389 1.36591 -1.4579e-19)
(43.8747 1.51689 -1.1507e-20)
(44.1127 1.68424 8.86141e-20)
(44.3582 1.85685 3.75218e-20)
(44.6097 2.03822 0)
(44.8813 2.22959 7.72552e-20)
(45.1564 2.4277 1.42033e-19)
(45.4399 2.61904 0)
(45.7925 2.84539 -3.30503e-19)
(46.1373 3.1213 0)
(46.5089 3.40512 0)
(46.9077 3.68593 3.81116e-19)
(47.3118 4.0051 2.58961e-19)
(47.7429 4.34007 6.82406e-19)
(48.1972 4.67976 0)
(48.6232 5.05947 0)
(49.0841 5.44844 2.85424e-19)
(49.5743 5.84452 3.8315e-19)
(50.0161 6.24765 1.51689e-18)
(50.4305 6.64466 4.66323e-20)
(50.8121 7.03139 5.22811e-20)
(51.2065 7.43373 -1.71883e-18)
(51.6823 7.87438 -6.54322e-20)
(52.0869 8.24485 2.37536e-18)
(52.4926 8.54063 1.46602e-18)
(52.9417 8.82219 8.3587e-19)
(53.4862 9.1888 1.96328e-18)
(53.7667 9.36918 1.01153e-19)
(53.754 9.44147 -2.6604e-18)
(52.9305 9.48607 -1.58474e-18)
(50.1404 8.98951 -4.57123e-18)
(43.1882 7.63732 5.19381e-18)
(28.9726 4.70189 -2.33294e-18)
(8.94105 0.675304 0)
(0.720059 0.0757532 0)
(-1.08655 0.0846791 8.13455e-19)
(39.0015 0.072628 -9.98235e-19)
(42.3123 -0.0545325 -3.83168e-19)
(42.3387 0.258893 4.14919e-19)
(42.3186 0.193702 -1.39665e-20)
(42.3053 0.402963 -9.88242e-19)
(42.3291 0.422518 1.69319e-20)
(42.3781 0.51569 0)
(42.4592 0.55934 6.236e-19)
(42.564 0.608755 1.95248e-20)
(42.6974 0.645832 -1.56226e-21)
(42.8514 0.691307 -7.17433e-19)
(43.0268 0.752529 3.24012e-19)
(43.2366 0.821649 3.14129e-21)
(43.4607 0.907789 -1.37424e-19)
(43.6986 1.0077 0)
(43.9624 1.11419 0)
(44.2449 1.24169 -7.01782e-20)
(44.5601 1.38839 -2.63244e-20)
(44.8983 1.56901 0)
(45.232 1.76394 -7.70119e-20)
(45.5781 1.99072 -1.41559e-19)
(45.9226 2.24485 -6.79612e-20)
(46.2656 2.48682 5.64202e-20)
(46.6445 2.7343 3.55404e-19)
(47.0128 3.00531 1.48199e-19)
(47.3819 3.30883 2.31468e-19)
(47.7939 3.61028 -7.94592e-19)
(48.1997 3.93979 -6.85049e-19)
(48.5802 4.28909 9.15933e-19)
(49.0135 4.63312 -1.14334e-18)
(49.4327 4.9997 0)
(49.8259 5.37941 0)
(50.2643 5.76299 7.17108e-20)
(50.7205 6.15073 -1.19765e-18)
(51.2011 6.55151 1.5272e-18)
(51.6773 6.93299 2.74469e-18)
(52.0663 7.23347 -1.02996e-18)
(52.4932 7.54949 -2.55698e-18)
(52.9227 7.90565 -2.95665e-18)
(53.3436 8.27037 -1.74062e-18)
(53.7206 8.55354 -8.54793e-20)
(53.7824 8.67635 2.22218e-18)
(53.4546 8.85947 0)
(51.858 8.62515 1.56756e-18)
(46.9548 7.84656 1.80325e-18)
(35.8452 5.72905 2.06159e-18)
(16.7177 1.93751 6.95828e-18)
(3.75843 0.101288 -2.58123e-18)
(-0.589952 0.124588 0)
(-1.02082 0.12876 0)
(39.1017 0.11532 -9.25531e-21)
(42.4381 0.0411097 7.49599e-19)
(42.4453 0.357125 -4.27041e-19)
(42.3932 0.276583 9.29177e-19)
(42.3641 0.438672 5.29781e-19)
(42.3855 0.395605 -4.54106e-22)
(42.4355 0.461915 -1.87708e-20)
(42.5078 0.4634 -5.83788e-19)
(42.6081 0.510668 -4.29041e-20)
(42.7333 0.539863 -4.1903e-20)
(42.9046 0.57107 3.558e-19)
(43.0983 0.611751 4.74934e-20)
(43.3152 0.662755 3.68275e-19)
(43.5587 0.723704 3.49897e-19)
(43.8088 0.807633 -3.20891e-20)
(44.0684 0.907188 3.57858e-20)
(44.3315 1.02208 0)
(44.6029 1.14387 2.88973e-20)
(44.8824 1.27582 0)
(45.1806 1.4171 0)
(45.4809 1.55885 0)
(45.8267 1.72389 -1.39855e-19)
(46.2208 1.90988 5.03312e-19)
(46.6038 2.13722 -4.85496e-19)
(47.0123 2.3595 0)
(47.4604 2.59322 -2.40987e-19)
(47.9079 2.87333 -9.01685e-19)
(48.3897 3.16611 -1.50096e-18)
(48.8851 3.47779 -1.40424e-18)
(49.3468 3.82584 1.11539e-18)
(49.8324 4.1872 -1.44097e-18)
(50.3501 4.56737 8.43618e-19)
(50.8391 4.9719 2.18671e-18)
(51.2838 5.38058 0)
(51.662 5.75862 1.64646e-18)
(52.0247 6.13214 -3.70689e-18)
(52.4771 6.58946 -1.03598e-19)
(52.8664 7.01361 2.52937e-18)
(53.2315 7.3514 1.48653e-18)
(53.6779 7.69022 0)
(53.8614 7.92862 2.04455e-18)
(53.7629 8.11573 -2.42681e-18)
(52.7338 8.06722 5.44019e-18)
(49.1233 7.66917 0)
(40.5834 6.1769 -7.24175e-18)
(25.3062 3.37428 1.99972e-18)
(7.62536 0.367806 -2.27241e-18)
(0.818998 0.122594 -2.55165e-18)
(-1.13595 0.132697 5.62978e-18)
(-0.851019 0.136811 1.36989e-21)
(39.1985 0.101239 6.85003e-19)
(42.618 0.0266902 -7.7279e-19)
(42.6339 0.329187 8.58937e-19)
(42.5613 0.282033 -1.87733e-18)
(42.4904 0.461536 1.08757e-18)
(42.4461 0.427738 -7.05699e-20)
(42.4493 0.466895 6.62005e-19)
(42.4904 0.441134 0)
(42.5892 0.405711 7.23586e-19)
(42.6972 0.390203 -8.06602e-19)
(42.8538 0.369851 4.04575e-21)
(43.0548 0.361296 5.04721e-20)
(43.2766 0.370175 -3.6704e-19)
(43.5203 0.393388 3.52671e-20)
(43.7886 0.430153 -3.16176e-19)
(44.0782 0.485639 -3.98451e-20)
(44.3967 0.562504 0)
(44.7449 0.662267 -2.87682e-20)