/*--------------------------------*- C++ -*----------------------------------*\
| =========                 |                                                 |
| \\      /  F ield         | OpenFOAM: The Open Source CFD Toolbox           |
|  \\    /   O peration     | Version:  v1912                                 |
|   \\  /    A nd           | Website:  www.openfoam.com                      |
|    \\/     M anipulation  |                                                 |
\*---------------------------------------------------------------------------*/
FoamFile
{
    version     2.0;
    format      ascii;
    class       volScalarField;
    location    "0.03";
    object      p;
}
// * * * * * * * * * * * * * * * * * * * * * * * * * * * * * * * * * * * * * //

dimensions      [0 2 -2 0 0 0 0];


internalField   nonuniform List<scalar> 
6600
(
109.075
104.097
101.614
100.056
98.8257
98.2196
97.9909
97.7134
97.4154
97.4344
97.7779
98.351
99.1762
100.186
101.338
102.655
104.117
105.712
107.437
109.317
111.347
113.5
115.737
118.006
120.28
122.454
124.606
126.662
128.442
129.739
130.384
130.152
128.841
126.255
122.202
116.334
108.228
97.3436
83.4596
65.9371
43.8031
16.3892
-16.7694
-56.3995
-103.803
-160.017
-224.899
-298.78
-385.974
-482.079
105.048
101.831
99.7954
97.735
96.0036
95.0715
94.3295
93.954
93.8073
93.6539
93.7347
94.0373
94.5193
95.1191
95.8199
96.6479
97.5693
98.556
99.6361
100.852
102.168
103.532
104.89
106.181
107.357
108.294
108.908
109.265
109.249
108.647
107.233
104.787
101.05
95.7508
88.6921
79.5851
68.0552
53.3754
34.9963
12.599
-14.4948
-47.2998
-86.4319
-132.324
-186.376
-249.526
-321.769
-402.901
-495.669
-596.172
101.881
96.9113
96.1449
93.4177
92.0171
91.1634
90.4103
90.0274
89.6452
89.2461
89.0076
89.0339
89.1943
89.4637
89.8363
90.2606
90.6912
91.1256
91.5919
92.0913
92.5768
93.0234
93.3952
93.6401
93.6698
93.3922
92.6637
91.3065
89.3357
86.6136
82.9638
78.1025
71.7761
63.5793
53.2355
40.3868
24.704
5.86641
-16.7385
-44.1642
-76.5405
-114.818
-159.732
-211.876
-272.178
-341.736
-420.548
-507.644
-602.631
-701.718
98.1188
91.8677
91.8746
88.216
88.0712
87.0038
86.0465
85.3837
84.8303
84.1547
83.8335
83.5558
83.2955
83.1138
83.029
82.9713
82.907
82.8534
82.795
82.6528
82.3482
81.8453
81.1229
80.1421
78.8241
77.0901
74.8236
71.8187
67.8786
62.8704
56.6862
49.145
39.8996
28.6626
15.0631
-1.32287
-20.9722
-44.3832
-71.9341
-104.153
-141.742
-185.411
-235.811
-293.56
-359.254
-433.926
-517.718
-608.641
-704.184
-799.352
91.9003
85.0598
86.2467
79.9602
82.3071
80.7995
80.3437
79.7093
78.9857
78.3644
78.0706
77.517
76.9174
76.3212
75.6825
74.9801
74.2049
73.4099
72.5994
71.6815
70.5681
69.1708
67.4038
65.1664
62.3897
59.0535
54.9664
50.1145
44.2564
37.1308
28.4796
18.1153
5.7776
-8.75427
-25.9234
-46.146
-69.8404
-97.4177
-129.488
-166.435
-208.729
-257.101
-312.147
-374.422
-444.427
-522.9
-609.792
-702.829
-797.583
-887.247
85.7544
75.6232
80.9327
73.0528
77.9098
73.0072
73.8383
72.7875
71.9268
71.3074
70.7039
69.8589
69.0794
68.2628
67.2946
66.1317
64.7411
63.1521
61.3621
59.3353
57.0679
54.5223
51.6022
48.1463
43.9921
38.9838
33.0447
26.0574
17.9406
8.49238
-2.61039
-15.6981
-31.0566
-48.8212
-69.3448
-93.0493
-120.495
-152.151
-188.336
-229.447
-275.975
-328.31
-386.919
-452.287
-524.832
-605.25
-693.604
-787.432
-880.412
-962.802
80.6575
67.8209
79.8359
68.7281
74.1225
68.0143
68.8461
66.5979
65.1324
63.8046
62.2953
60.8034
59.4974
58.1747
56.743
55.1625
53.3563
51.2517
48.735
45.7184
42.1956
38.1751
33.6609
28.6092
22.9205
16.3988
8.79846
-0.101426
-10.4594
-22.3859
-36.0442
-51.7737
-69.9869
-90.9729
-114.944
-142.131
-172.883
-207.721
-247.217
-291.618
-341.199
-396.413
-457.558
-524.91
-598.718
-679.509
-767.654
-860.846
-950.472
-1023.3
76.4241
63.2002
75.418
62.0221
69.3977
61.9505
63.3363
60.0523
58.4682
56.7184
54.3146
52.1644
49.9489
47.5442
45.065
42.4976
39.7837
36.8523
33.58
29.8312
25.4773
20.3767
14.4296
7.59612
-0.103298
-8.67759
-18.2241
-28.9679
-41.299
-55.532
-71.7925
-90.18
-110.957
-134.488
-161.14
-191.248
-225.024
-262.726
-304.749
-351.548
-403.352
-460.274
-522.559
-590.468
-664.212
-744.205
-830.67
-921.444
-1006.13
-1067.6
72.2982
57.8251
67.488
53.3448
61.7641
52.3046
55.6562
50.889
50.5699
48.3219
45.8761
43.6914
40.8323
37.6219
34.1466
30.3059
26.1223
21.6336
16.8336
11.6963
6.13303
-0.0217947
-6.97833
-14.9638
-24.1524
-34.6454
-46.4444
-59.5068
-73.9408
-90.1205
-108.49
-129.275
-152.638
-178.791
-207.902
-240.24
-276.121
-315.801
-359.585
-407.714
-460.464
-518.071
-580.555
-647.986
-720.599
-798.808
-882.379
-968.623
-1046.93
-1095.97
62.3261
50.1946
60.1234
44.7313
53.661
42.3554
46.878
40.5221
41.1269
37.6349
35.6275
33.2545
30.0706
26.7349
22.8815
18.3701
13.2473
7.50693
1.13533
-5.83513
-13.3681
-21.4515
-30.1352
-39.5807
-50.0537
-61.8596
-75.2739
-90.4622
-107.361
-125.899
-146.312
-168.97
-194.1
-221.963
-252.918
-287.132
-324.675
-365.727
-410.492
-459.248
-512.132
-569.225
-630.646
-696.488
-766.879
-842.225
-922.086
-1002.82
-1073.26
-1110.13
51.8121
42.1797
51.0549
36.954
45.9827
34.1329
38.8494
31.3409
31.7531
26.9588
24.8414
21.2575
17.4758
13.6781
9.25419
4.30812
-1.17694
-7.39172
-14.4781
-22.5118
-31.5362
-41.5305
-52.4091
-64.093
-76.5946
-90.0898
-104.876
-121.36
-139.866
-160.44
-182.961
-207.582
-234.617
-264.183
-296.343
-331.453
-369.789
-411.381
-456.393
-504.913
-557.055
-612.944
-672.547
-735.9
-803.135
-874.555
-950.115
-1024.91
-1086.94
-1113.34
42.1608
34.8459
42.0705
29.8889
38.164
26.4114
31.4387
22.9524
23.3498
17.6029
14.9516
10.0402
5.44276
0.451069
-5.2099
-11.1606
-17.4973
-24.4373
-32.1012
-40.625
-50.2102
-61.0542
-73.2676
-86.8365
-101.627
-117.49
-134.401
-152.555
-172.339
-194.197
-218.26
-244.356
-272.503
-303.06
-336.324
-372.196
-410.821
-452.36
-496.822
-544.375
-595.067
-648.863
-705.762
-765.78
-828.996
-895.731
-965.645
-1034.53
-1090.16
-1108.58
33.0129
27.6946
32.4125
22.6947
29.534
18.4014
23.3535
14.1349
15.0051
8.38016
5.50409
-0.120605
-5.23853
-11.3357
-18.1394
-25.3716
-33.2078
-41.6969
-50.7801
-60.4882
-70.9393
-82.3203
-94.913
-109.023
-124.871
-142.451
-161.515
-181.798
-203.245
-226.147
-251.079
-278.385
-307.933
-339.412
-372.898
-408.815
-447.173
-488.018
-531.498
-577.492
-626.004
-677.104
-730.692
-786.626
-844.848
-906.189
-969.248
-1030.39
-1078.68
-1094.98
23.6907
20.5008
23.3918
15.7716
20.6743
10.7092
14.7079
5.28089
6.24952
-1.32322
-4.05605
-10.3092
-15.6521
-22.3625
-29.6688
-37.6533
-46.6259
-56.5195
-67.2292
-78.7658
-91.0896
-104.133
-117.938
-132.71
-148.8
-166.657
-186.581
-208.453
-231.88
-256.481
-282.282
-309.766
-339.35
-371.263
-405.258
-441.037
-478.831
-518.607
-560.338
-604.243
-650.192
-697.988
-747.574
-798.812
-851.475
-906.1
-960.322
-1010.17
-1046.1
-1061.52
15.3869
13.7748
14.8049
9.52535
12.21
3.87668
6.55943
-2.66911
-2.09944
-10.4662
-13.152
-20.3856
-25.9801
-33.3729
-41.1023
-49.5885
-59.1826
-69.7487
-81.3128
-94.0123
-107.873
-122.828
-138.744
-155.49
-173.014
-191.442
-211.243
-232.998
-256.966
-282.849
-310.082
-338.565
-368.556
-400.156
-433.625
-468.974
-505.838
-544.289
-584.301
-625.634
-668.374
-712.471
-757.634
-803.444
-850.427
-897.118
-940.793
-975.664
-994.115
-1005.42
8.18382
7.86593
7.12162
4.01401
4.54933
-1.92633
-0.840501
-9.33606
-9.40797
-18.2499
-21.0523
-29.2766
-35.1654
-43.4098
-51.7195
-60.9032
-71.1561
-82.284
-94.4306
-107.754
-122.341
-138.284
-155.599
-174.199
-193.937
-214.541
-235.756
-257.79
-281.371
-307.1
-334.741
-363.636
-393.726
-425.334
-458.358
-492.78
-528.635
-565.521
-603.389
-642.347
-681.973
-722.051
-762.419
-802.728
-843.191
-881.531
-914.842
-937.838
-944.334
-949.486
1.93946
2.77431
0.749611
-0.556744
-2.09132
-6.74974
-7.27196
-14.6606
-15.7377
-24.4901
-27.5392
-36.513
-42.6043
-51.6941
-60.572
-70.6126
-81.6644
-93.5332
-106.411
-120.382
-135.519
-151.984
-169.906
-189.324
-210.244
-232.621
-256.114
-280.082
-304.321
-329.628
-356.885
-386.006
-416.276
-447.479
-479.927
-513.559
-548.125
-583.548
-619.454
-655.633
-692.201
-728.753
-764.534
-799.89
-833.618
-863.995
-888.121
-903.008
-910.988
-912.484
-3.09157
-1.18135
-4.94647
-4.01797
-7.51099
-10.3212
-12.5838
-18.7499
-20.9263
-29.0677
-32.6946
-41.8382
-48.0477
-57.7092
-66.8742
-77.6687
-89.482
-102.253
-116.159
-131.13
-147.137
-164.293
-182.742
-202.614
-224.005
-247.021
-271.75
-297.886
-324.437
-350.785
-377.639
-405.888
-435.718
-466.716
-498.552
-531.31
-564.945
-599.039
-633.287
-667.432
-701.12
-734.363
-766.797
-797.659
-825.912
-849.966
-866.923
-874.442
-882.744
-883.75
-6.89225
-4.16087
-9.3797
-6.18883
-12.1427
-12.5544
-16.7994
-21.2875
-24.6848
-32.168
-36.416
-45.3477
-51.8429
-61.7718
-70.9919
-82.2197
-94.3338
-107.659
-122.39
-138.396
-155.62
-174.021
-193.557
-214.226
-236.098
-259.342
-284.175
-310.871
-339.182
-367.874
-396.173
-424.564
-453.672
-483.818
-515.053
-547.141
-579.86
-613.007
-646.106
-678.694
-710.621
-741.425
-770.646
-797.686
-821.145
-839.215
-849.813
-855.171
-857.834
-860.999
-9.31573
-6.0792
-12.2043
-7.82186
-15.4658
-13.4097
-20.248
-22.0725
-27.4071
-33.435
-38.3176
-46.9393
-53.6467
-63.6485
-73.0129
-84.5945
-96.8569
-110.495
-125.605
-142.123
-160.139
-179.659
-200.633
-222.909
-246.219
-270.453
-295.729
-322.372
-350.896
-380.957
-411.107
-440.639
-469.952
-499.584
-529.827
-561.074
-593.391
-626.238
-658.936
-691.072
-722.086
-751.042
-777.57
-801.102
-820.323
-832.852
-837.801
-843.582
-844.54
-847.013
-10.7616
-7.25761
-13.8115
-8.61794
-17.4318
-13.2524
-22.3645
-21.3669
-29.2905
-32.8224
-39.1698
-46.7555
-53.5672
-63.4423
-72.7651
-84.4441
-96.7845
-110.728
-126.158
-143.065
-161.553
-181.638
-203.411
-226.965
-252.103
-278.346
-305.298
-332.783
-361.309
-391.725
-423.387
-454.575
-484.783
-514.321
-543.949
-574.218
-605.552
-638.339
-671.884
-704.83
-736.117
-764.331
-788.503
-808.399
-822.156
-828.245
-832.356
-834.668
-836.985
-838.335
-10.9802
-7.44895
-14.8324
-8.25807
-18.4647
-12.5401
-23.0634
-19.9858
-29.5664
-30.6248
-38.7704
-44.7064
-52.1007
-61.4793
-70.7089
-82.2318
-94.4367
-108.401
-123.914
-141.116
-160.091
-180.785
-203.192
-227.452
-253.74
-281.907
-311.454
-341.535
-371.421
-401.828
-433.767
-466.35
-498.045
-528.286
-557.403
-586.489
-616.931
-649.366
-683.849
-719.482
-753.159
-781.405
-803.651
-819.399
-827.656
-828.724
-830.439
-831.287
-833.671
-834.61
-10.7472
-7.04075
-15.2546
-7.22916
-18.8352
-11.0187
-22.7225
-18.346
-28.4032
-28.0673
-36.9505
-41.2242
-49.1895
-57.7097
-66.7808
-78.0655
-90.0645
-103.907
-119.3
-136.515
-155.675
-176.812
-199.898
-224.928
-252.02
-281.268
-312.648
-345.775
-379.31
-412.2
-445.095
-478.506
-511.295
-542.297
-571.397
-599.341
-627.497
-658.446
-693.777
-732.227
-770.324
-802.512
-824.732
-834.402
-831.854
-832.617
-831.235
-831.473
-832.325
-832.909
-9.86334
-5.8422
-15.0485
-5.89449
-18.3193
-9.39366
-21.3281
-16.2246
-26.192
-25.4599
-33.7981
-37.4118
-45.3301
-52.7703
-61.5882
-72.2302
-83.7986
-97.3095
-112.448
-129.551
-148.73
-170.087
-193.661
-219.467
-247.584
-278.04
-310.8
-346.008
-382.877
-419.597
-455.501
-490.878
-525.238
-557.6
-586.832
-613.213
-638.669
-665.812
-698.319
-738.724
-784.257
-825.204
-850.145
-853.911
-844.329
-837.57
-834.984
-832.505
-830.552
-829.801
-8.66481
-4.41621
-13.9756
-4.93884
-16.6637
-8.13683
-19.0118
-14.2683
-23.0009
-22.4948
-29.8768
-33.1843
-40.5721
-47.257
-55.6247
-65.4726
-76.3701
-89.1891
-103.695
-120.325
-139.222
-160.569
-184.437
-210.812
-239.79
-271.5
-305.808
-342.878
-383.075
-424.34
-464.631
-503.716
-540.908
-575.054
-605.148
-630.489
-651.665
-672.218
-697.264
-735.762
-788.892
-845.363
-880.263
-877.897
-867.477
-851.043
-841.536
-832.558
-826.798
-824.018
-7.87983
-2.8501
-12.0461
-4.15169
-14.0219
-7.29865
-16.0112
-12.3505
-19.6596
-19.3321
-25.8431
-28.7647
-35.352
-41.3654
-49.0969
-58.0475
-68.2439
-80.2171
-93.8938
-109.704
-127.873
-148.728
-172.504
-199.257
-229.016
-261.971
-298.043
-336.887
-379.094
-424.787
-471.166
-515.698
-557.618
-595.412
-627.368
-652.19
-670.023
-681.548
-693.127
-719.836
-773.774
-846.676
-910.419
-913.391
-893.502
-867.216
-847.908
-833.362
-823.45
-817.525
-6.95961
-2.11916
-9.70004
-3.97702
-11.1201
-6.42762
-13.0724
-10.3937
-16.3532
-16.2251
-21.8584
-24.4939
-30.278
-35.5155
-42.4503
-50.3853
-59.684
-70.648
-83.3531
-98.1681
-115.338
-135.264
-158.334
-184.822
-214.85
-248.68
-286.568
-328.11
-373.073
-422.321
-474.468
-526.243
-575.155
-618.917
-655.118
-681.083
-695.959
-698.17
-694.362
-698.997
-734.379
-808.247
-899.375
-935.395
-910.862
-889.614
-871.104
-850.892
-833.203
-822.619
-6.57783
-1.31877
-6.35644
-3.90633
-7.94717
-5.89415
-10.0681
-8.93026
-13.067
-13.5106
-17.9562
-20.361
-25.4224
-29.9894
-36.0912
-43.028
-51.2984
-61.0918
-72.6222
-86.2423
-102.23
-120.995
-143.006
-168.711
-198.415
-232.434
-271.33
-315.17
-363.515
-416.89
-474.975
-534.965
-593.134
-645.615
-688.592
-718.926
-733.549
-728.861
-706.882
-675.875
-669.207
-716.459
-802.224
-886.669
-916.787
-934.16
-930.226
-905.957
-877.986
-858.694
-5.622
-1.09896
-1.80535
-5.05427
-3.99004
-6.27849
-6.95813
-8.025
-10.0596
-11.1994
-14.3996
-16.8251
-20.9157
-24.9115
-30.2379
-36.1946
-43.4111
-52.0332
-62.2905
-74.5324
-89.1121
-106.47
-127.13
-151.653
-180.528
-214.246
-253.513
-298.841
-350.124
-407.849
-472.58
-541.9
-611.492
-676.466
-730.382
-769.132
-783.857
-772.678
-739.004
-672.458
-601.652
-609.192
-675.063
-807.224
-913.14
-987.909
-1003.85
-976.457
-934.065
-913.65
-3.16206
-4.71048
4.06796
-7.66556
0.376204
-7.25845
-3.47507
-7.53726
-7.09455
-9.53321
-10.9694
-13.6727
-17.0019
-20.53
-25.0809
-30.1301
-36.4079
-43.9801
-53.0639
-63.9727
-77.0874
-92.9181
-112.081
-135.237
-162.892
-195.759
-235.083
-281.595
-335.091
-396.09
-466.861
-547.016
-631.049
-712.537
-783.454
-834.299
-852.417
-833.976
-779.449
-691.631
-591.287
-534.974
-607.746
-757.508
-906.234
-1007.98
-1026.09
-995.734
-962.699
-946.434
109.177
104.193
101.744
100.198
98.9859
98.4082
98.215
97.9774
97.7184
97.7792
98.1625
98.7783
99.6536
100.727
101.951
103.348
104.935
106.704
108.632
110.732
113.007
115.437
117.985
120.594
123.252
125.866
128.492
131.114
133.615
135.8
137.495
138.444
138.471
137.406
135.099
131.198
125.359
117.032
105.89
91.6284
73.3903
50.2985
21.7669
-12.8496
-54.3847
-103.84
-161.71
-227.202
-307.165
-392.912
105.134
101.939
99.9481
97.8871
96.1858
95.2832
94.5735
94.2224
94.1081
94.0011
94.1203
94.4688
95.0142
95.677
96.4454
97.3611
98.4212
99.5869
100.862
102.29
103.849
105.492
107.157
108.787
110.337
111.742
112.901
113.824
114.525
114.788
114.419
113.172
110.779
106.976
101.627
94.4617
85.1212
73.0108
57.3824
38.0128
14.4781
-14.1557
-48.4811
-89.6121
-138.15
-195.009
-260.706
-334.163
-420.162
-512.868
101.984
97.0255
96.3441
93.537
92.2214
91.3927
90.6601
90.3039
89.968
89.6145
89.4016
89.4919
89.7201
90.0558
90.4996
91.0388
91.6216
92.2349
92.8964
93.6123
94.3459
95.0721
95.7469
96.3316
96.7516
96.9399
96.7662
96.1229
94.9154
93.0994
90.4772
86.7868
81.7657
75.0841
66.4277
55.5118
42.0085
25.6601
5.63981
-18.6909
-47.6918
-82.1899
-122.506
-170.174
-225.322
-289.074
-361.743
-442.414
-531.782
-624.9
98.2593
91.9969
92.1043
88.2696
88.3695
87.2686
86.3347
85.6963
85.1915
84.5066
84.2634
84.0635
83.8557
83.7484
83.7592
83.8398
83.9478
84.0821
84.2247
84.3064
84.2556
84.0303
83.6131
82.9883
82.0994
80.8725
79.1602
76.909
73.7979
69.7355
64.6669
58.309
50.3654
40.6314
28.7211
14.2332
-3.34816
-24.2933
-49.2142
-78.5236
-112.841
-152.935
-199.325
-252.83
-314.065
-383.918
-462.522
-548.251
-639.255
-729.719
92.0411
85.1709
86.5142
79.8189
82.877
80.9925
80.6883
80.0836
79.3153
78.7569
78.5648
78.0525
77.5099
77.0135
76.4768
75.9415
75.351
74.7705
74.1709
73.4791
72.6238
71.5138
70.0747
68.2319
65.9239
63.1031
59.7124
55.5639
50.5576
44.3694
36.8677
27.7227
16.7489
3.67531
-11.8266
-30.1361
-51.8201
-77.19
-106.618
-140.742
-180.085
-225.358
-277.103
-335.622
-401.64
-476.114
-558.958
-648.053
-739.988
-826.683
85.8902
75.6538
81.2896
72.5774
79.0046
72.8713
74.3196
73.0632
72.2888
71.7483
71.2366
70.4041
69.7168
69.0103
68.1282
67.193
65.9739
64.6439
63.034
61.2392
59.2443
57.0118
54.4615
51.4461
47.8042
43.3752
38.1186
31.8788
24.6278
16.1647
6.12271
-5.77152
-19.7048
-35.9721
-54.8704
-76.7846
-102.284
-131.836
-165.632
-204.135
-247.907
-297.487
-353.369
-415.916
-485.558
-563.05
-648.487
-739.57
-831.403
-913.227
80.7504
67.8532
80.1608
68.6872
74.7365
68.052
69.3043
66.8702
65.5723
64.2766
62.8741
61.3636
60.1961
58.9939
57.6883
56.2833
54.6779
52.7857
50.4745
47.7121
44.4899
40.8212
36.7169
32.1369
26.9844
21.0782
14.1746
6.08562
-3.39921
-14.3465
-26.9596
-41.5702
-58.4378
-77.9118
-100.284
-125.728
-154.656
-187.623
-225.017
-267.249
-314.604
-367.559
-426.457
-491.551
-563.266
-642.289
-728.839
-820.75
-911.366
-986.409
76.522
63.3636
75.6114
62.2371
69.7895
62.1698
63.7349
60.4484
58.9896
57.2094
54.8916
52.7815
50.7178
48.419
46.0646
43.6791
41.168
38.4428
35.4017
31.929
27.8986
23.1776
17.6674
11.3294
4.18377
-3.77054
-12.612
-22.5643
-34.0088
-47.2606
-62.4681
-79.7737
-99.3648
-121.5
-146.638
-175.173
-207.276
-243.257
-283.507
-328.431
-378.389
-433.626
-494.443
-561.03
-633.613
-712.777
-798.996
-890.021
-977.464
-1043.66
72.3829
58.0323
67.6876
53.6105
62.0998
52.5769
56.1315
51.326
50.9763
48.8888
46.4133
44.3932
41.6544
38.5243
35.2003
31.5563
27.5547
23.2734
18.7286
13.8856
8.65907
2.89316
-3.62028
-11.1018
-19.7198
-29.5756
-40.6711
-52.9797
-66.6
-81.8596
-99.1787
-118.836
-141.054
-165.986
-193.772
-224.662
-259.11
-297.391
-339.772
-386.556
-437.988
-494.408
-555.942
-622.725
-695.037
-773.342
-857.638
-945.712
-1028.25
-1083.05
62.4324
50.4266
60.3219
44.9659
53.9838
42.6093
47.3917
40.7846
41.614
38.1646
36.2584
34.0295
30.908
27.6996
24.013
19.6602
14.7068
9.19543
3.08081
-3.59889
-10.79
-18.4809
-26.7234
-35.677
-45.5958
-56.7878
-69.5171
-83.9427
-100.046
-117.749
-137.225
-158.833
-182.876
-209.6
-239.393
-272.441
-308.755
-348.631
-392.299
-440.077
-492.224
-548.808
-610.015
-675.964
-746.854
-823.149
-904.406
-987.776
-1063.29
-1105.97
51.9277
42.4685
51.2271
37.2475
46.3003
34.3866
39.2804
31.5151
32.4859
27.3564
25.5675
22.0282
18.3307
14.7097
10.4387
5.61957
0.326574
-5.65666
-12.4957
-20.2411
-28.9301
-38.5404
-48.9835
-60.1854
-72.159
-85.0739
-99.2361
-115.011
-132.729
-152.485
-174.151
-197.81
-223.826
-252.414
-283.618
-317.778
-355.24
-396.044
-440.345
-488.241
-539.962
-595.787
-655.713
-719.801
-788.23
-861.325
-938.799
-1016.63
-1083.95
-1115.67
42.2834
35.1831
42.1846
30.2723
38.3954
26.7348
31.8026
23.2545
24.0835
17.9572
15.7318
10.6998
6.33726
1.46999
-4.06126
-9.82314
-15.9535
-22.6943
-30.1091
-38.3308
-47.5892
-58.0716
-69.8736
-82.9762
-97.2603
-112.565
-128.88
-146.391
-165.442
-186.505
-209.791
-235.113
-262.426
-292.084
-324.49
-359.622
-397.543
-438.527
-482.639
-530.094
-580.94
-635.138
-692.847
-754.131
-819.12
-888.037
-960.754
-1032.67
-1092.11
-1114.98
33.1222
28.0301
32.4728
23.0947
29.7012
18.7927
23.71
14.575
15.5738
8.74818
6.34371
0.435584
-4.31417
-10.4074
-17.0618
-24.0543
-31.695
-39.9896
-48.8169
-58.2245
-68.3487
-79.3762
-91.5811
-105.25
-120.6
-137.635
-156.115
-175.808
-196.633
-218.831
-243.015
-269.583
-298.418
-329.248
-362.103
-397.449
-435.418
-476.013
-519.35
-565.413
-614.357
-666.315
-721.167
-778.879
-839.57
-903.535
-970.124
-1035.67
-1088.87
-1106.43
23.7538
20.8133
23.426
16.1883
20.824
11.1377
15.1025
5.73031
6.75989
-0.867682
-3.26129
-9.77713
-14.7511
-21.5063
-28.6325
-36.4162
-45.2205
-54.8837
-65.3333
-76.5958
-88.6067
-101.295
-114.714
-129.065
-144.684
-162.013
-181.346
-202.603
-225.44
-249.455
-274.654
-301.561
-330.603
-361.948
-395.449
-430.851
-468.347
-508.081
-550.044
-594.386
-641.086
-690.017
-741.24
-794.656
-850.018
-908.109
-967.133
-1023.87
-1068.03
-1084.82
15.4609
14.0762
14.8332
9.92021
12.3482
4.40411
6.87189
-2.20914
-1.58115
-9.98679
-12.4717
-19.8432
-25.1388
-32.5717
-40.0792
-48.4361
-57.8894
-68.2003
-79.5005
-91.9491
-105.532
-120.157
-135.69
-152.01
-169.074
-187.015
-206.286
-227.46
-250.845
-276.175
-302.877
-330.807
-360.278
-391.482
-424.59
-459.664
-496.472
-535.004
-575.335
-617.365
-661.127
-706.665
-753.801
-802.389
-852.397
-903.198
-952.584
-996.553
-1026.49
-1041.81
8.29778
8.06182
7.13665
4.40415
4.76712
-1.47798
-0.577664
-8.78938
-9.02744
-17.7536
-20.4583
-28.7471
-34.4051
-42.6678
-50.724
-59.855
-69.9593
-80.8442
-92.7495
-105.832
-120.149
-135.79
-152.764
-170.971
-190.254
-210.364
-231.069
-252.564
-275.581
-300.747
-327.883
-356.381
-386.116
-417.371
-450.181
-484.479
-520.286
-557.427
-595.716
-635.272
-676.06
-717.837
-760.444
-803.546
-847.507
-890.652
-929.694
-958.857
-971.87
-983.483
2.04645
3.03909
0.712449
-0.223794
-1.95492
-6.33068
-6.95846
-14.2177
-15.4091
-23.9579
-27.0421
-36.0055
-41.9037
-51.0341
-59.6673
-69.6974
-80.5722
-92.2275
-104.908
-118.657
-133.519
-149.676
-167.267
-186.329
-206.85
-228.768
-251.761
-275.211
-298.932
-323.726
-350.483
-379.122
-408.999
-439.909
-472.093
-505.617
-540.242
-575.878
-612.439
-649.534
-687.078
-725.078
-763.244
-801.423
-838.995
-874.151
-904.231
-924.08
-929.951
-934.781
-2.97642
-0.986533
-4.82816
-3.74715
-7.60846
-9.73577
-12.5718
-18.3177
-20.5018
-28.7469
-32.1867
-41.4029
-47.4067
-57.1934
-66.0884
-76.9332
-88.5503
-101.123
-114.867
-129.633
-145.375
-162.229
-180.348
-199.864
-220.871
-243.459
-267.713
-293.328
-319.324
-345.109
-371.409
-399.244
-428.777
-459.54
-491.256
-523.901
-557.5
-591.705
-626.184
-661.022
-695.928
-730.594
-764.728
-798.416
-830.542
-859.169
-881.261
-894.153
-902.988
-904.852
-6.74561
-4.08872
-9.04825
-6.13869
-12.2835
-12.0283
-16.8422
-20.6236
-24.6233
-31.7979
-35.9681
-45.0719
-51.2975
-61.3918
-70.3158
-81.677
-93.5765
-106.735
-121.341
-137.144
-154.114
-172.228
-191.44
-211.748
-233.229
-256.04
-280.398
-306.585
-334.352
-362.53
-390.335
-418.178
-446.869
-476.767
-507.789
-539.806
-572.48
-605.682
-639.097
-672.094
-704.59
-736.351
-767.323
-797.005
-824.481
-847.885
-864.076
-870.526
-876.689
-879.304
-9.11663
-6.04305
-11.872
-7.75412
-15.3939
-13.2555
-20.1767
-21.6439
-27.4246
-32.5969
-38.3516
-46.6704
-53.2363
-63.4164
-72.4847
-84.1968
-96.243
-109.784
-124.789
-141.119
-158.927
-178.201
-198.859
-220.756
-243.651
-267.432
-292.204
-318.3
-346.212
-375.567
-405.062
-434.136
-463.074
-492.435
-522.624
-553.769
-585.918
-618.45
-650.85
-682.956
-714.289
-744.308
-772.3
-798.222
-821.305
-839.006
-848.835
-855.306
-856.676
-860.09
-10.5032
-7.15423
-13.6165
-8.40699
-17.1806
-13.4921
-22.0873
-21.3281
-29.2555
-31.9286
-39.3596
-46.1826
-53.5034
-63.3247
-72.3788
-84.1967
-96.3143
-110.231
-125.551
-142.287
-160.612
-180.501
-202.001
-225.193
-249.898
-275.644
-302.031
-328.914
-356.828
-386.61
-417.509
-447.946
-477.625
-506.868
-536.332
-566.646
-597.983
-630.43
-663.262
-695.484
-726.523
-754.794
-780.038
-802.222
-820.456
-832.791
-837.849
-842.58
-844.062
-846.34
-10.5941
-7.36032
-14.7229
-8.02256
-18.2463
-12.6548
-22.8192
-20.0173
-29.618
-30.1108
-39.1378
-43.8597
-52.3477
-61.181
-70.4989
-82.1345
-94.1194
-108.131
-123.529
-140.597
-159.443
-179.961
-202.135
-226.084
-251.961
-279.624
-308.552
-337.921
-367.037
-396.604
-427.75
-459.553
-490.442
-520.203
-549.253
-578.522
-609.12
-641.325
-674.815
-708.628
-740.782
-768.6
-791.572
-809.656
-821.238
-825.615
-831.28
-833.413
-836.04
-837.404
-10.49
-6.80402
-15.0929
-7.11965
-18.6653
-10.9395
-22.9778
-17.5519
-29.1463
-27.2442
-37.6904
-40.4631
-49.7059
-57.2501
-66.8004
-78.0015
-89.8695
-103.861
-119.13
-136.269
-155.336
-176.313
-199.2
-223.956
-250.658
-279.414
-310.178
-342.517
-375.194
-407.133
-438.89
-471.191
-503.078
-533.416
-562.298
-590.473
-619.313
-650.556
-685.122
-722.102
-757.451
-786.525
-807.891
-820.456
-825.13
-824.934
-825.956
-828.621
-831.442
-832.71
-9.65958
-5.58625
-14.6664
-5.88294
-18.0778
-9.2777
-21.9723
-15.0864
-27.3175
-24.1328
-34.8139
-36.9361
-45.7359
-52.4716
-61.8063
-72.1749
-83.7789
-97.436
-112.473
-129.58
-148.693
-169.926
-193.341
-218.911
-246.667
-276.627
-308.773
-343.167
-379.033
-414.729
-449.435
-483.4
-516.426
-547.646
-576.29
-603.002
-629.571
-658.531
-692.194
-731.159
-772.294
-808.259
-830.885
-837.176
-832.114
-830.948
-828.551
-828.928
-829.78
-830.521
-8.49645
-4.2782
-13.4587
-4.82791
-16.5258
-8.13115
-19.5235
-13.335
-23.8841
-21.6639
-30.3293
-33.0702
-40.7344
-47.1986
-55.9135
-65.4734
-76.5114
-89.4387
-103.887
-120.586
-139.449
-160.725
-184.479
-210.668
-239.351
-270.608
-304.302
-340.552
-379.524
-419.502
-458.42
-495.876
-531.421
-564.098
-593.14
-618.477
-641.344
-664.961
-694.097
-733.287
-781.869
-830.604
-860.82
-860.396
-849.231
-841.074
-835.459
-830.623
-827.573
-826.532
-7.73568
-2.90766
-11.5843
-3.76165
-14.119
-6.94499
-16.4248
-12.0479
-19.8485
-19.2638
-25.7699
-28.8356
-35.4257
-41.4031
-49.3448
-58.1776
-68.5074
-80.5488
-94.2377
-110.135
-128.305
-149.154
-172.859
-199.474
-228.994
-261.545
-297.033
-335.155
-376.4
-420.454
-464.934
-507.612
-547.44
-583.21
-613.615
-637.585
-656.591
-673.397
-692.841
-724.066
-776.767
-841.959
-893.11
-897.022
-878.288
-857.063
-843.007
-830.846
-822.751
-819.019
-6.81747
-2.039
-9.51502
-3.59899
-11.0595
-6.23978
-13.0841
-10.4502
-16.2579
-16.2942
-21.7754
-24.5259
-30.3841
-35.5743
-42.6991
-50.592
-60.0129
-71.0435
-83.8116
-98.7281
-115.944
-135.92
-158.979
-185.405
-215.295
-248.813
-286.129
-326.801
-370.686
-418.45
-468.574
-517.86
-564.178
-605.268
-638.893
-663.489
-678.752
-685.734
-690.887
-707.168
-751.738
-823.089
-902.926
-924.127
-906.929
-874.117
-852.034
-834.578
-821.099
-812.559
-6.43128
-1.19936
-6.23585
-3.66527
-7.7502
-5.79641
-9.91856
-8.95108
-13.0218
-13.5131
-17.9482
-20.3755
-25.549
-30.0683
-36.358
-43.276
-51.6668
-61.5248
-73.1444
-86.8885
-102.977
-121.841
-143.892
-169.589
-199.234
-233.091
-271.595
-314.769
-362.056
-413.729
-469.468
-526.496
-581.242
-630.213
-669.93
-697.099
-709.951
-709.77
-697.527
-685.062
-699.856
-759.303
-848.823
-913.829
-916.285
-905.152
-888.174
-864.256
-841.516
-828.114
-5.4942
-0.970228
-1.7123
-4.90989
-3.78473
-6.22296
-6.79323
-8.01663
-10.0088
-11.2463
-14.3883
-16.8294
-21.0147
-25.0194
-30.5032
-36.465
-43.8204
-52.5101
-62.8672
-75.2372
-89.958
-107.469
-128.247
-152.841
-181.718
-215.343
-254.296
-299.011
-349.47
-405.735
-467.796
-533.543
-598.943
-659.115
-708.837
-742.543
-754.028
-745.683
-719.489
-676.635
-639.871
-656.882
-731.174
-845.713
-916.98
-962.151
-960.632
-929.088
-894.335
-868.846
-3.13895
-4.5689
4.16578
-7.55604
0.539246
-7.22018
-3.32331
-7.57662
-6.9668
-9.62298
-10.9078
-13.7283
-17.036
-20.6411
-25.3184
-30.4175
-36.8469
-44.5125
-53.7123
-64.7532
-78.0131
-94.0205
-113.37
-136.702
-164.493
-197.454
-236.606
-282.434
-334.941
-395.098
-463.509
-539.263
-617.864
-692.896
-756.743
-801.123
-818.109
-798.007
-748.639
-673.771
-596.697
-568.617
-622.157
-758.941
-898.345
-1004.48
-1033.9
-996.639
-951.478
-929.199
1.36442
-5.94408
7.78244
-6.55715
2.72116
-6.14938
-0.895303
-6.42348
-4.2677
-8.09698
-8.1226
-11.1856
-14.1511
-17.4734
-21.3398
-25.836
-31.4362
-38.1667
-46.4326
-56.4457
-68.5482
-83.2269
-101.189
-123.354
-150.15
-182.096
-221.174
-268.488
-323.111
-385.857
-461.341
-550.411
-647.401
-743.825
-828.326
-891.697
-923.996
-909.589
-834.953
-730.678
-629.825
-593.791
-651.107
-783.445
-918.498
-1006.66
-1014.8
-988.736
-961.055
-947.818
1.10408
-3.09567
2.60727
-2.85578
0.29608
-3.38625
-1.75272
-4.37691
-4.56167
-6.83018
-8.2328
-9.98568
-12.2834
-15.1264
-18.5231
-22.751
-27.9247
-34.1379
-41.8501
-51.3459
-63.1157
-77.5624
-95.3375
-117.557
-144.942
-177.785
-218.562
-269.82
-330.047
-400.306
-487.254
-593.866
-715.146
-840.016
-947.565
-1025.16
-1058.34
-1019.47
-923.511
-806.688
-727.541
-725.038
-769.899
-851.258
-940.501
-975.265
-958.307
-935.1
-927.303
-927.387
0.116429
-0.44498
0.179233
-0.95277
-0.762261
-1.64244
-2.19905
-3.28454
-4.20623
-5.53945
-7.06945
-8.60197
-10.5738
-13.091
-16.1697
-20.1818
-25.186
-31.37
-39.1023
-48.5829
-60.4891
-75.3601
-94.0245
-117.626
-147.003
-182.578
-227.498
-285.675
-355.095
-436.955
-540.452
-671.614
-825.263
-977.606
-1106.21
-1196.12
-1214.53
-1153.85
-1056.49
-968.775
-916.934
-902.85
-916.879
-942.812
-966.422
-953.999
-921.016
-901.548
-903.378
-911.706
0.563192
0.611207
0.279226
-0.0193471
-0.331198
-0.671273
-1.36062
-2.01976
-2.84241
-3.71251
-4.87513
-6.25748
-8.10961
-10.4766
-13.3789
-17.1892
-21.8666
-27.8135
-35.445
-45.0845
-57.4185
-72.9104
-92.4889
-117.664
-149.775
-189.226
-239.575
-306.708
-389.144
-486.633
-612.45
-777.283
-968.216
-1152.98
-1310.58
-1409.56
-1411.84
-1358.54
-1281.42
-1205.79
-1147.17
-1105.85
-1078.74
-1055.34
-1021.09
-975.351
-929.533
-905.097
-905.127
-914.444
1.40626
1.40925
1.24264
1.17437
0.959905
0.742283
0.334979
-0.104887
-0.732539
-1.36674
-2.15395
-3.20746
-4.61225
-6.53258
-8.95167
-12.3508
-16.6366
-22.2643
-29.4575
-38.7332
-50.926
-66.8129
-87.3615
-114.164
-149.104
-192.936
-249.685
-327.118
-424.576
-543.255
-703.716
-914.498
-1147.82
-1369.61
-1555.85
-1662.1
-1683.41
-1640.66
-1569.37
-1488.7
-1398.7
-1315.61
-1238.25
-1165.45
-1093.73
-1027.47
-970.671
-933.081
-919.998
-930.091
2.18276
2.3607
2.38165
2.52754
2.60569
2.74944
2.74807
2.70236
2.51949
2.21846
1.78713
1.10258
0.164687
-1.192
-2.90821
-5.40048
-8.70626
-13.4177
-19.7979
-28.4314
-40.0121
-55.4402
-75.9442
-103.54
-140.843
-188.855
-251.908
-341.39
-459.702
-607.806
-808.455
-1070.79
-1358.19
-1623.34
-1829.61
-1962.84
-2012.34
-1975.52
-1893.27
-1779.06
-1645.23
-1505.24
-1380.37
-1266.26
-1168.78
-1086.31
-1020.64
-972.107
-947.534
-957.672
3.44421
3.56223
3.78447
4.05678
4.43979
4.87835
5.33031
5.74945
6.22016
6.61839
6.93651
7.05032
6.95861
6.4611
5.58956
4.02781
1.78661
-1.59396
-6.42549
-13.4636
-23.6277
-38.0324
-57.894
-85.1705
-123.356
-174.683
-243.558
-346.011
-490.91
-672.785
-919.773
-1244.13
-1587.01
-1893.9
-2124.07
-2280.24
-2349.9
-2304.06
-2180.05
-2017.3
-1831.74
-1643.85
-1478.02
-1336.67
-1221.57
-1130.99
-1061.49
-1011.6
-984.106
-981.266
4.9908
5.36279
5.85167
6.33096
6.92266
7.57594
8.40627
9.27186
10.2355
11.2595
12.3666
13.4396
14.5301
15.4278
16.1362