/*--------------------------------*- C++ -*----------------------------------*\
| =========                 |                                                 |
| \\      /  F ield         | OpenFOAM: The Open Source CFD Toolbox           |
|  \\    /   O peration     | Version:  v1912                                 |
|   \\  /    A nd           | Website:  www.openfoam.com                      |
|    \\/     M anipulation  |                                                 |
\*---------------------------------------------------------------------------*/
FoamFile
{
    version     2.0;
    format      ascii;
    class       surfaceScalarField;
    location    "0.03";
    object      phi;
}
// * * * * * * * * * * * * * * * * * * * * * * * * * * * * * * * * * * * * * //

dimensions      [0 3 -1 0 0 0 0];
oriented        oriented;


internalField   nonuniform List<scalar> 
13060
(
0.00634122
0.987354
-0.993696
0.00863491
0.944552
-0.946846
0.0108907
0.897453
-0.899709
0.0130372
0.854456
-0.856602
0.0150214
0.813094
-0.815078
0.0168371
0.773359
-0.775174
0.0183941
0.735457
-0.737014
0.0195669
0.69963
-0.700803
0.0198445
0.666809
-0.667087
0.0196445
0.635442
-0.635242
0.0189573
0.605904
-0.605217
0.0181081
0.577689
-0.57684
0.017554
0.550447
-0.549893
0.0174219
0.524068
-0.523935
0.0176103
0.498554
-0.498743
0.0179979
0.473989
-0.474377
0.0184637
0.450474
-0.450939
0.0189216
0.428064
-0.428522
0.0193319
0.406768
-0.407179
0.0196628
0.38652
-0.386851
0.0198849
0.367342
-0.367564
0.0199958
0.349129
-0.34924
0.020006
0.331872
-0.331882
0.0199159
0.31552
-0.31543
0.0197243
0.300036
-0.299845
0.0194115
0.285373
-0.28506
0.0190194
0.271436
-0.271044
0.0185718
0.258285
-0.257837
0.0180602
0.245929
-0.245417
0.0174156
0.234322
-0.233677
0.0166215
0.223336
-0.222542
0.0157098
0.212948
-0.212036
0.0147358
0.203135
-0.202161
0.0137025
0.19393
-0.192896
0.0125636
0.18524
-0.184101
0.0112732
0.177021
-0.175731
0.00999296
0.169131
-0.167851
0.00893063
0.161784
-0.160722
0.00797036
0.154988
-0.154028
0.00695074
0.148615
-0.147595
0.00585531
0.142548
-0.141453
0.00472967
0.136836
-0.13571
0.00359912
0.131419
-0.130288
0.00250805
0.126347
-0.125256
0.00142684
0.121513
-0.120432
0.000416347
0.117057
-0.116047
-0.000606705
0.112335
-0.111312
-0.00163333
0.108882
-0.107855
-0.00175305
0.100497
-0.100377
0.0712161
-0.0729691
0.00793559
0.979419
0.0103228
0.942165
0.0134757
0.8943
0.0148267
0.853105
0.01647
0.81145
0.017273
0.772556
0.0179738
0.734756
0.0177887
0.699815
0.0168949
0.667703
0.0156659
0.636671
0.0142197
0.60735
0.0133016
0.578607
0.012907
0.550841
0.0128999
0.524075
0.0131875
0.498267
0.0136107
0.473566
0.0140299
0.450054
0.014382
0.427712
0.014663
0.406487
0.0148643
0.386318
0.014962
0.367244
0.0149244
0.349167
0.0147438
0.332053
0.0144531
0.31581
0.0140849
0.300405
0.0136381
0.28582
0.0130894
0.271985
0.0124618
0.258912
0.0118152
0.246576
0.0111604
0.234977
0.0104888
0.224007
0.00977929
0.213658
0.00905569
0.203859
0.00832873
0.194657
0.00762176
0.185947
0.00691248
0.17773
0.00605932
0.169984
0.00502688
0.162817
0.00396449
0.156051
0.00294583
0.149634
0.00197583
0.143518
0.00108296
0.137728
0.000259939
0.132242
-0.000527452
0.127135
-0.00127796
0.122263
-0.00190876
0.117688
-0.00255338
0.11298
-0.00277834
0.109107
-0.00226118
0.0999794
0.0689549
0.0166786
0.96274
0.0159708
0.942873
0.0181696
0.892101
0.0167558
0.854518
0.0169958
0.81121
0.0163723
0.773179
0.0156208
0.735508
0.013503
0.701933
0.0115959
0.66961
0.00980984
0.638457
0.00872927
0.608431
0.00842942
0.578907
0.00840729
0.550863
0.00865421
0.523828
0.00906875
0.497852
0.00949257
0.473143
0.0098607
0.449686
0.0101216
0.427451
0.0102719
0.406337
0.0103426
0.386248
0.0103771
0.367209
0.0103677
0.349176
0.0102737
0.332147
0.0100695
0.316014
0.00975708
0.300717
0.00936549
0.286211
0.00889554
0.272455
0.00835711
0.259451
0.00774361
0.247189
0.00706177
0.235658
0.00630733
0.224762
0.00546272
0.214502
0.00457931
0.204743
0.00364916
0.195587
0.00264291
0.186953
0.00161601
0.178757
0.000747831
0.170853
0.000128765
0.163436
-0.000477352
0.156657
-0.00113574
0.150292
-0.00177651
0.144159
-0.00240036
0.138352
-0.00298761
0.132829
-0.00348324
0.12763
-0.00388034
0.12266
-0.00417567
0.117983
-0.00439864
0.113203
-0.00395686
0.108665
-0.00280634
0.0988289
0.0661485
0.0303035
0.932437
0.0174496
0.955726
0.0181626
0.891388
0.0149015
0.857779
0.0147462
0.811366
0.0127431
0.775182
0.010112
0.738139
0.00703374
0.705011
0.0052041
0.671439
0.00399442
0.639667
0.00379488
0.60863
0.00386569
0.578836
0.00410425
0.550625
0.00453348
0.523399
0.00496061
0.497425
0.00535002
0.472753
0.00566714
0.449369
0.00589178
0.427226
0.00597616
0.406253
0.0058837
0.38634
0.00566105
0.367432
0.0053567
0.34948
0.00501116
0.332492
0.00461531
0.31641
0.00415198
0.30118
0.0036023
0.286761
0.00296401
0.273093
0.00230089
0.260114
0.00162629
0.247864
0.00098438
0.2363
0.000380593
0.225366
-0.000184239
0.215067
-0.000776287
0.205335
-0.00132501
0.196135
-0.00181924
0.187447
-0.00234137
0.179279
-0.00305377
0.171565
-0.0038753
0.164257
-0.00457829
0.15736
-0.00517244
0.150886
-0.00569082
0.144678
-0.00605705
0.138719
-0.00629108
0.133063
-0.00639457
0.127734
-0.00635612
0.122622
-0.00616085
0.117788
-0.00588705
0.112929
-0.00509237
0.10787
-0.0034334
0.0971699
0.0627151
0.0236876
0.908749
0.0109291
0.968485
0.0134916
0.888826
0.00824171
0.863029
0.00789433
0.811713
0.00409323
0.778983
0.00153342
0.740699
-1.12596e-05
0.706556
-0.00055633
0.671985
-0.000580414
0.639691
-0.000209561
0.60826
0.000160171
0.578466
0.000597651
0.550187
0.00099013
0.523006
0.0012351
0.49718
0.00138028
0.472608
0.00147769
0.449272
0.0015807
0.427123
0.0016767
0.406157
0.00169304
0.386324
0.00157898
0.367546
0.00133703
0.349722
0.00100997
0.332819
0.000617992
0.316802
0.000188971
0.301609
-0.000261254
0.287211
-0.000772635
0.273604
-0.00137624
0.260718
-0.00205744
0.248545
-0.00281276
0.237056
-0.00363537
0.226188
-0.00447049
0.215902
-0.00531218
0.206176
-0.00614853
0.196972
-0.00698515
0.188284
-0.00771634
0.180011
-0.00822301
0.172072
-0.0085423
0.164577
-0.00879939
0.157617
-0.00898252
0.151069
-0.00910651
0.144802
-0.00919093
0.138803
-0.00917733
0.13305
-0.00902406
0.127581
-0.00869701
0.122295
-0.00817426
0.117265
-0.00757529
0.11233
-0.00635376
0.106649
-0.0040736
0.0948898
0.0586415
0.00472634
0.904023
0.00357402
0.969637
0.00602415
0.886376
-0.000896329
0.86995
-0.00232866
0.813145
-0.00582273
0.782477
-0.00594216
0.740818
-0.00640261
0.707016
-0.00569522
0.671277
-0.0050436
0.639039
-0.00403614
0.607252
-0.00339666
0.577827
-0.00272788
0.549519
-0.00228839
0.522567
-0.00211324
0.497005
-0.00214694
0.472642
-0.00233072
0.449455
-0.00257423
0.427367
-0.00281056
0.406393
-0.00305266
0.386566
-0.00335545
0.367849
-0.00374751
0.350114
-0.00421243
0.333284
-0.00475098
0.317341
-0.00539295
0.302251
-0.0061311
0.287949
-0.00685602
0.274329
-0.00754633
0.261408
-0.00818004
0.249179
-0.00876723
0.237643
-0.0093099
0.226731
-0.00980015
0.216392
-0.0102345
0.206611
-0.0105948
0.197332
-0.0108879
0.188577
-0.0112115
0.180334
-0.011662
0.172522
-0.0121192
0.165034
-0.0124231
0.157921
-0.0125848
0.151231
-0.0125877
0.144805
-0.0123836
0.138599
-0.0120184
0.132684
-0.0115119
0.127074
-0.0108841
0.121667
-0.0100826
0.116464
-0.00915825
0.111406
-0.00759279
0.105083
-0.00473614
0.0920331
0.0539054
-0.0109846
0.915008
-0.00699622
0.965649
-0.00394418
0.883324
-0.00704231
0.873048
-0.0070266
0.81313
-0.00972146
0.785172
-0.00930078
0.740397
-0.00971139
0.707427
-0.00912541
0.670691
-0.00867384
0.638588
-0.00789379
0.606472
-0.00725177
0.577185
-0.00650967
0.548777
-0.00607832
0.522135
-0.00583796
0.496764
-0.00581272
0.472616
-0.00594507
0.449588
-0.00618156
0.427603
-0.00647781
0.406689
-0.00680481
0.386893
-0.00717143
0.368215
-0.00759999
0.350543
-0.00806895
0.333753
-0.00852231
0.317794
-0.00895173
0.302681
-0.00943621
0.288434
-0.0100506
0.274944
-0.0107615
0.262119
-0.0115067
0.249924
-0.0122539
0.23839
-0.0129994
0.227476
-0.013745
0.217138
-0.0144651
0.207331
-0.015137
0.198004
-0.0156994
0.18914
-0.0160664
0.180701
-0.0161813
0.172637
-0.016141
0.164994
-0.0160258
0.157806
-0.0158015
0.151007
-0.0154966
0.1445
-0.0151221
0.138224
-0.0146094
0.132172
-0.0139356
0.1264
-0.013108
0.120839
-0.0121065
0.115462
-0.0108652
0.110164
-0.00887451
0.103093
-0.00533246
0.0884911
0.048573
-0.0215394
0.936547
-0.0137043
0.957814
-0.0108883
0.880508
-0.0114079
0.873567
-0.00919115
0.810913
-0.0104845
0.786466
-0.0099377
0.739851
-0.0102137
0.707703
-0.0103377
0.670815
-0.0103156
0.638566
-0.0103964
0.606553
-0.010153
0.576941
-0.00992022
0.548544
-0.00977878
0.521994
-0.00971661
0.496702
-0.00980642
0.472706
-0.0100029
0.449784
-0.0102855
0.427886
-0.0106423
0.407046
-0.0110717
0.387322
-0.011574
0.368718
-0.012179
0.351148
-0.0129058
0.33448
-0.0137091
0.318597
-0.0144958
0.303467
-0.0151979
0.289136
-0.0158341
0.27558
-0.016445
0.26273
-0.0170345
0.250513
-0.0175621
0.238918
-0.0179875
0.227902
-0.0183009
0.217451
-0.0185283
0.207558
-0.0187113
0.198187
-0.0188561
0.189284
-0.018998
0.180843
-0.0191675
0.172807
-0.0192553
0.165081
-0.0191675
0.157718
-0.0189278
0.150767
-0.0184983
0.14407
-0.017859
0.137585
-0.0170739
0.131387
-0.0161612
0.125488
-0.015157
0.119835
-0.0140921
0.114397
-0.0125174
0.10859
-0.0101496
0.100725
-0.00596124
0.0843027
0.0426117
-0.0212848
0.957832
-0.00964171
0.946171
-0.0135544
0.88442
-0.0124789
0.872492
-0.0100626
0.808497
-0.0106918
0.787095
-0.00963127
0.73879
-0.0103566
0.708428
-0.0105669
0.671026
-0.0109714
0.63897
-0.0114811
0.607063
-0.0117431
0.577203
-0.0120685
0.548869
-0.0122402
0.522165
-0.0124632
0.496925
-0.012756
0.472999
-0.0131344
0.450163
-0.0135703
0.428322
-0.0140127
0.407488
-0.0144283
0.387738
-0.01482
0.369109
-0.015228
0.351556
-0.0157131
0.334965
-0.0163035
0.319188
-0.0169774
0.304141
-0.0176903
0.289849
-0.0184015
0.276291
-0.0190842
0.263413
-0.0197506
0.25118
-0.0204295
0.239596
-0.0211308
0.228603
-0.0218109
0.218132
-0.0223897
0.208137
-0.0228053
0.198603
-0.0230475
0.189527
-0.0231008
0.180896
-0.0229367
0.172643
-0.0226307
0.164775
-0.0222202
0.157307
-0.0216772
0.150224
-0.0210534
0.143446
-0.0203537
0.136885
-0.0195123
0.130545
-0.0185099
0.124485
-0.0173448
0.11867
-0.016107
0.113159
-0.0142361
0.106719
-0.0114371
0.0979259
-0.00651394
0.0793795
0.0360978
-0.0145819
0.972414
-0.00402441
0.935613
-0.0134322
0.893828
-0.0103161
0.869376
-0.010655
0.808835
-0.0108289
0.787269
-0.00978717
0.737748
-0.0108855
0.709527
-0.0108138
0.670954
-0.0116843
0.639841
-0.0124127
0.607791
-0.0131094
0.5779
-0.0137379
0.549498
-0.0141594
0.522587
-0.0145184
0.497284
-0.0149105
0.473391
-0.0154686
0.450721
-0.0162317
0.429085
-0.0171227
0.408379
-0.0180117
0.388627
-0.0188205
0.369918
-0.0195464
0.352282
-0.0202428
0.335661
-0.0209783
0.319923
-0.0217515
0.304915
-0.0225169
0.290614
-0.0232547
0.277029
-0.0239382
0.264096
-0.0245001
0.251742
-0.024898
0.239994
-0.0251394
0.228844
-0.0252773
0.218269
-0.0253843
0.208244
-0.0254983
0.198717
-0.0255649
0.189593
-0.0255464
0.180878
-0.0254743
0.17257
-0.0252866
0.164588
-0.0249336
0.156954
-0.0244229
0.149713
-0.0237109
0.142734
-0.0228135
0.135988
-0.0218024
0.129534
-0.0206966
0.123379
-0.0194865
0.11746
-0.0180664
0.111739
-0.016044
0.104696
-0.0128288
0.0947107
-0.00711055
0.0736613
0.0289872
-0.00908741
0.981501
-0.00336031
0.929886
-0.0128476
0.903316
-0.00828626
0.864815
-0.0110392
0.811588
-0.0103303
0.78656
-0.0101208
0.737539
-0.011005
0.710411
-0.0108208
0.67077
-0.0119945
0.641014
-0.0128352
0.608632
-0.013976
0.579041
-0.0149694
0.550491
-0.0157481
0.523366
-0.0162507
0.497787
-0.0165651
0.473706
-0.0169123
0.451068
-0.0174847
0.429657
-0.0183167
0.409211
-0.019293
0.389603
-0.0202731
0.370898
-0.0211647
0.353173
-0.0219355
0.336432
-0.0226351
0.320623
-0.023335
0.305614
-0.0240421
0.291322
-0.0247482
0.277735
-0.0254859
0.264834
-0.0262603
0.252516
-0.0270377
0.240772
-0.0277808
0.229588
-0.0284177
0.218906
-0.0288562
0.208682
-0.0290412
0.198902
-0.0290572
0.189609
-0.028939
0.18076
-0.0286404
0.172272
-0.0282014
0.164149
-0.0276395
0.156392
-0.0269422
0.149016
-0.0261634
0.141955
-0.0252913
0.135116
-0.0242711
0.128514
-0.0231049
0.122213
-0.0219371
0.116292
-0.0202575
0.11006
-0.0179962
0.102435
-0.0141966
0.0909111
-0.00774418
0.0672088
0.021243
-0.00575204
0.987253
-0.00471892
0.928853
-0.0116238
0.91022
-0.00733122
0.860522
-0.0112083
0.815465
-0.00989081
0.785242
-0.0105011
0.738149
-0.0108544
0.710764
-0.0107392
0.670654
-0.0117523
0.642028
-0.0124164
0.609296
-0.0137846
0.580409
-0.0151892
0.551896
-0.0165909
0.524767
-0.017737
0.498933
-0.0185341
0.474503
-0.0190987
0.451633
-0.0196729
0.430232
-0.0204456
0.409984
-0.0214512
0.390609
-0.0225982
0.372045
-0.023795
0.35437
-0.0249849
0.337622
-0.0261082
0.321746
-0.027125
0.306631
-0.0280183
0.292215
-0.0287732
0.27849
-0.0293977
0.265458
-0.0299141
0.253032
-0.0302942
0.241152
-0.0305255
0.229819
-0.030661
0.219042
-0.0308058
0.208827
-0.0309963
0.199092
-0.031088
0.189701
-0.0310133
0.180685
-0.030834
0.172093
-0.0305267
0.163841
-0.0300811
0.155947
-0.0294871
0.148422
-0.0286883
0.141157
-0.027724
0.134152
-0.0266598
0.12745
-0.0255207
0.121074
-0.0243092
0.115081
-0.0224098
0.10816
-0.0197697
0.0997952
-0.0151287
0.0862701
-0.00760366
0.0596837
0.0136394
-0.00349576
0.990749
-0.00532155
0.930679
-0.010085
0.914984
-0.00721384
0.857651
-0.0110965
0.819348
-0.00971169
0.783857
-0.010873
0.73931
-0.0108394
0.710731
-0.0108612
0.670676
-0.0114614
0.642628
-0.0117496
0.609584
-0.0128534
0.581513
-0.0140983
0.55314
-0.0156737
0.526343
-0.0172867
0.500546
-0.0186644
0.47588
-0.01971
0.452678
-0.0204937
0.431015
-0.0212229
0.410713
-0.0220659
0.391452
-0.0230026
0.372982
-0.023944
0.355312
-0.0248965
0.338575
-0.0259265
0.322776
-0.0270352
0.30774
-0.0281394
0.293319
-0.0291565
0.279507
-0.0300776
0.266379
-0.0309652
0.25392
-0.0318681
0.242055
-0.0327497
0.2307
-0.0334971
0.219789
-0.0339436
0.209274
-0.0340677
0.199216
-0.0340529
0.189686
-0.0339594
0.180592
-0.0337048
0.171838
-0.0333087
0.163445
-0.0327566
0.155395
-0.0320595
0.147725
-0.0312895
0.140387
-0.0304125
0.133275
-0.029403
0.12644
-0.0284052
0.120076
-0.0269418
0.113617
-0.024902
0.10612
-0.0215788
0.096472
-0.0155693
0.0802606
-0.00615006
0.0502645
0.00748932
-0.00177882
0.992528
-0.00502565
0.933926
-0.00833004
0.918288
-0.00701683
0.856338
-0.0103724
0.822704
-0.00915707
0.782642
-0.0107992
0.740953
-0.0107322
0.710664
-0.0110541
0.670998
-0.0115185
0.643092
-0.011658
0.609724
-0.012496
0.582351
-0.0133583
0.554003
-0.0147869
0.527771
-0.0164982
0.502257
-0.018286
0.477668
-0.019937
0.454329
-0.0212911
0.432369
-0.022447
0.411869
-0.0236361
0.392641
-0.0249496
0.374296
-0.0262633
0.356625
-0.0274375
0.339749
-0.0284961
0.323835
-0.0295807
0.308825
-0.0307418
0.29448
-0.0318752
0.28064
-0.0328409
0.267345
-0.0335698
0.254649
-0.0340568
0.242542
-0.0343682
0.231012
-0.0346401
0.220061
-0.0350229
0.209657
-0.0354696
0.199663
-0.035754
0.18997
-0.0358128
0.18065
-0.035733
0.171758
-0.0355064
0.163219
-0.0351738
0.155062
-0.0347006
0.147252
-0.0339966
0.139683
-0.033125
0.132403
-0.0321791
0.125494
-0.0312088
0.119106
-0.0295886
0.111997
-0.0272861
0.103818
-0.0230579
0.0922438
-0.0153319
0.0725346
-0.0042412
0.0391738
0.00324812
-0.000977332
0.993505
-0.00455161
0.9375
-0.00654288
0.92028
-0.00629279
0.856087
-0.00886927
0.82528
-0.00795757
0.78173
-0.00986436
0.742859
-0.00975136
0.710551
-0.0104652
0.671712
-0.010952
0.643579
-0.0111149
0.609887
-0.0117936
0.583029
-0.0122887
0.554498
-0.0133816
0.528864
-0.0147821
0.503658
-0.0165156
0.479402
-0.0183433
0.456157
-0.0199512
0.433977
-0.0212509
0.413169
-0.0224106
0.393801
-0.0236701
0.375555
-0.0250758
0.358031
-0.0264692
0.341142
-0.02771
0.325076
-0.028828
0.309943
-0.0299633
0.295615
-0.0312024
0.281879
-0.0325203
0.268663
-0.0338741
0.256003
-0.035216
0.243884
-0.0364459
0.232242
-0.0374205
0.221036
-0.0380079
0.210244
-0.0382841
0.199939
-0.0384709
0.190157
-0.0386018
0.180781
-0.0385917
0.171748
-0.0384483
0.163075
-0.0380993
0.154713
-0.0375822
0.146734
-0.0370033
0.139104
-0.0363082
0.131708
-0.0356484
0.124834
-0.0344742
0.117932
-0.032653
0.110176
-0.0295976
0.100763
-0.024263
0.0869092
-0.0153076
0.0635792
-0.0028091
0.0266753
0.000439016
-0.000273124
0.993778
-0.00322916
0.940456
-0.00483294
0.921883
-0.00522045
0.856475
-0.0072983
0.827358
-0.00675351
0.781185
-0.00856728
0.744673
-0.00850224
0.710486
-0.00961796
0.672828
-0.0101744
0.644135
-0.0105849
0.610297
-0.0113338
0.583778
-0.0117131
0.554877
-0.0126606
0.529812
-0.0138007
0.504798
-0.015451
0.481052
-0.0174405
0.458146
-0.019459
0.435996
-0.0212501
0.41496
-0.0227727
0.395323
-0.0242427
0.377025
-0.0258616
0.35965
-0.0275794
0.34286
-0.0292374
0.326733
-0.0307556
0.311461
-0.0321297
0.296989
-0.0333765
0.283126
-0.0345051
0.269791
-0.0354948
0.256993
-0.0363399
0.244729
-0.0370758
0.232978
-0.0377947
0.221755
-0.0386048
0.211054
-0.0394286
0.200763
-0.0400595
0.190788
-0.0404797
0.181202
-0.040727
0.171995
-0.0407922
0.163141
-0.0407658
0.154687
-0.0405973
0.146566
-0.0401784
0.138685
-0.0396756
0.131205
-0.0391056
0.124265
-0.0378377
0.116664
-0.0358765
0.108215
-0.0322057
0.0970918
-0.0252991
0.0800025
-0.0139015
0.0521816
-0.00191464
0.0146885
-0.00147563
0.000335298
0.993443
-0.00176172
0.942553
-0.00306645
0.923188
-0.00338916
0.856798
-0.00526702
0.829236
-0.00476447
0.780683
-0.00659772
0.746506
-0.00648866
0.710377
-0.00772489
0.674064
-0.00827413
0.644685
-0.00897378
0.610997
-0.00974201
0.584547
-0.0101712
0.555306
-0.0109912
0.530632
-0.0118183
0.505625
-0.0131212
0.482355
-0.0148326
0.459858
-0.0168077
0.437971
-0.0187552
0.416908
-0.0204153
0.396983
-0.0218589
0.378469
-0.0233872
0.361178
-0.0251217
0.344595
-0.0269149
0.328527
-0.0286695
0.313215
-0.0304298
0.29875
-0.0321955
0.284892
-0.0339334
0.271529
-0.0356741
0.258733
-0.0374189
0.246474
-0.0390806
0.234639
-0.0404956
0.22317
-0.0415157
0.212074
-0.0422097
0.201457
-0.0427905
0.191369
-0.0432752
0.181686
-0.0436766
0.172397
-0.0439974
0.163461
-0.0441076
0.154797
-0.044016
0.146474
-0.0438396
0.138509
-0.0437553
0.131121
-0.043069
0.123578
-0.0417903
0.115385
-0.0393862
0.105811
-0.0346123
0.092318
-0.0253421
0.0707323
-0.0104492
0.0372886
-0.00140496
0.00564424
-0.00288059
0.000529034
0.992914
-0.000916674
0.943999
-0.00199928
0.924271
-0.00217886
0.856977
-0.004016
0.831073
-0.00338372
0.780051
-0.00518583
0.748309
-0.00490259
0.710093
-0.00639989
0.675561
-0.00686325
0.645148
-0.00773088
0.611864
-0.00855587
0.585372
-0.00914396
0.555895
-0.0100174
0.531505
-0.0107948
0.506402
-0.0120011
0.483561
-0.0135758
0.461432
-0.0156087
0.440004
-0.0179169
0.419216
-0.0201092
0.399175
-0.0219635
0.380323
-0.023659
0.362874
-0.0255212
0.346457
-0.0275626
0.330568
-0.0295648
0.315218
-0.0314841
0.300669
-0.0333756
0.286783
-0.0351379
0.273292
-0.036663
0.260258
-0.0379998
0.247811
-0.0392523
0.235892
-0.0405286
0.224446
-0.0419085
0.213454
-0.0432822
0.202831
-0.0444531
0.19254
-0.0454451
0.182678
-0.0462114
0.173163
-0.0467555
0.164005
-0.0471966
0.155238
-0.0475376
0.146815
-0.0477793
0.13875
-0.0477736
0.131115
-0.0470861
0.122891
-0.0456605
0.11396
-0.0423645
0.102515
-0.0353821
0.0853356
-0.0228608
0.058211
-0.00637363
0.0208015
-0.000728834
-5.5251e-07
-0.00360942
0.00104297
0.991871
0.00063136
0.94441
0.000125384
0.924777
-7.50251e-05
0.857178
-0.001514
0.832512
-0.00114444
0.779681
-0.00301491
0.750179
-0.00261333
0.709692
-0.00421685
0.677165
-0.00448358
0.645415
-0.00564897
0.61303
-0.0064266
0.586149
-0.0071668
0.556635
-0.00794526
0.532284
-0.00857195
0.507029
-0.00945922
0.484448
-0.0105753
0.462548
-0.0121783
0.441607
-0.0142695
0.421307
-0.016587
0.401493
-0.0187624
0.382498
-0.0206523
0.364764
-0.0225042
0.348309
-0.0245843
0.332648
-0.0268272
0.317461
-0.0291047
0.302947
-0.0314863
0.289165
-0.0340129
0.275818
-0.0365709
0.262816
-0.0390349
0.250275
-0.0413091
0.238166
-0.0432829
0.22642
-0.0448822
0.215053
-0.0461808
0.204129
-0.0473084
0.193667
-0.0482578
0.183628
-0.0491805
0.174086
-0.0501022
0.164927
-0.0509055
0.156041
-0.0515218
0.147432
-0.0521144
0.139343
-0.0520691
0.13107
-0.0513912
0.122213
-0.0493858
0.111954
-0.0443905
0.0975193
-0.0339928
0.0749379
-0.0165669
0.040785
-0.00327438
0.00750898
0.000103234
-0.00337816
-0.00350619
0.000645659
0.991225
0.000590038
0.944466
0.000188757
0.925178
0.000358327
0.857008
-0.000981281
0.833852
-0.000429063
0.779129
-0.00211972
0.75187
-0.0014129
0.708985
-0.00322671
0.678979
-0.00317071
0.645359
-0.00447039
0.614329
-0.00514821
0.586827
-0.00612642
0.557613
-0.00708863
0.533246
-0.00788623
0.507827
-0.0088473
0.48541
-0.00985586
0.463557
-0.0112648
0.443016
-0.0131804
0.423223
-0.0155486
0.403861
-0.0180738
0.385024
-0.0204388
0.367129
-0.0226411
0.350511
-0.0249044
0.334911
-0.0272843
0.31984
-0.0296487
0.305311
-0.0319952
0.291511
-0.0343642
0.278187
-0.0366646
0.265117
-0.0388759
0.252486
-0.0410412
0.240331
-0.0431658
0.228544
-0.0452743
0.217162
-0.0472798
0.206135
-0.0490963
0.195484
-0.050753
0.185284
-0.0521105
0.175443
-0.0532644
0.166081
-0.0543692
0.157146
-0.0554984
0.148561
-0.056252
0.140097
-0.0563267
0.131145
-0.0554139
0.1213
-0.0520964
0.108637
-0.0441693
0.0895923
-0.0293045
0.0600731
-0.00984817
0.0213287
-0.00185007
-0.000489118
0.000100381
-0.00532862
-0.00340581
0.00112867
0.990096
0.002681
0.942913
0.00163229
0.926227
0.00261267
0.856028
0.000973883
0.83549
0.00157838
0.778524
-0.000190903
0.753639
3.25263e-05
0.708761
-0.00139492
0.680406
-0.00135128
0.645315
-0.00270875
0.615687
-0.00309183
0.58721
-0.00406633
0.558587
-0.00480915
0.533989
-0.00559216
0.50861
-0.00640783
0.486225
-0.0072069
0.464356
-0.0082494
0.444058
-0.00970885
0.424682
-0.0117243
0.405877
-0.0141415
0.387441
-0.0166093
0.369596
-0.018981
0.352883
-0.0214607
0.337391
-0.0242013
0.322581
-0.0270663
0.308176
-0.0300026
0.294448
-0.033171
0.281356
-0.0365106
0.268456
-0.039764
0.255739
-0.0428603
0.243427
-0.0457278
0.231412
-0.0482235
0.219657
-0.0503696
0.208281
-0.052197
0.197311
-0.0536951
0.186782
-0.0551401
0.176888
-0.0565664
0.167507
-0.0580378
0.158617
-0.0595082
0.150031
-0.0604753
0.141064
-0.0606041
0.131273
-0.0587611
0.119457
-0.0530255
0.102901
-0.0407398
0.0773066
-0.0200343
0.0393675
-0.00488077
0.00617522
-0.000595072
-0.00477482
0.000313485
-0.00623718
-0.00309232
-3.44232e-05
0.990131
0.00155426
0.941325
0.000816153
0.926965
0.00170301
0.855141
0.000470058
0.836723
0.00130491
0.77769
-0.000119803
0.755064
0.000443199
0.708198
-0.00127953
0.682129
-0.00102892
0.645064
-0.0024747
0.617133
-0.00274908
0.587484
-0.00387735
0.559716
-0.00463582
0.534747
-0.005501
0.509475
-0.00639384
0.487118
-0.00724694
0.465209
-0.00823117
0.445042
-0.00947198
0.425923
-0.0112437
0.407648
-0.013608
0.389805
-0.0162639
0.372252
-0.0188201
0.355439
-0.0212994
0.33987
-0.0240145
0.325296
-0.026956
0.311118
-0.0298577
0.297349
-0.0327277
0.284226
-0.0357501
0.271479
-0.0389215
0.258911
-0.0421132
0.246619
-0.0452671
0.234566
-0.0483559
0.222746
-0.0512594
0.211184
-0.0539113
0.199963
-0.0563401
0.189211
-0.0582889
0.178837
-0.0599363
0.169155
-0.0615995
0.160281
-0.0631798
0.151611
-0.0642029
0.142087
-0.0641464
0.131217
-0.0608786
0.116189
-0.0512226
0.093245
-0.0326645
0.0587486
-0.0112586
0.0179616
-0.00286883
-0.00221457
-0.000506901
-0.00713675
8.84638e-05
-0.00683254
-0.00300386
0.000501928
0.989629
0.00314411
0.938683
0.00120117
0.928908
0.00282598
0.853516
0.00118378
0.838366
0.00192196
0.776951
0.000405022
0.756581
0.000860926
0.707743
-0.00035183
0.683341
-0.000334116
0.645047
-0.00136546
0.618164
-0.00151053
0.587629
-0.00245553
0.560661
-0.00296649
0.535258
-0.00370599
0.510214
-0.00438673
0.487799
-0.0050917
0.465914
-0.00584639
0.445797
-0.0067211
0.426798
-0.00796766
0.408895
-0.00984521
0.391683
-0.0123569
0.374764
-0.0151267
0.358209
-0.0178512
0.342595
-0.0207268
0.328172
-0.0240445
0.314435
-0.0277367
0.301042
-0.0316621
0.288151
-0.0357368
0.275553
-0.0397516
0.262926
-0.043691
0.250558
-0.0475672
0.238442
-0.051167
0.226346
-0.0544272
0.214445
-0.0572409
0.202777
-0.0594822
0.191453
-0.0615076
0.180863
-0.063323
0.17097
-0.0649611
0.161919
-0.0663628
0.153013
-0.0673551
0.143079
-0.0663306
0.130192
-0.0602186
0.110077
-0.0457836
0.07881
-0.020887
0.033852
-0.00613884
0.00321345
-0.00197641
-0.00637699
-0.000799051
-0.00831411
-0.000328101
-0.00730349
-0.00333196
-0.0019016
0.991531
0.000515538
0.936265
-0.000532944
0.929956
0.000795836
0.852187
-0.000365911
0.839527
0.000462255
0.776123
-0.000804946
0.757848
-0.000487394
0.707425
-0.00177175
0.684626
-0.00158307
0.644858
-0.00279855
0.619379
-0.00284362
0.587675
-0.00381975
0.561637
-0.00421778
0.535656
-0.00499799
0.510995
-0.00569067
0.488491
-0.00642365
0.466647
-0.00719252
0.446566
-0.00801883
0.427624
-0.00906064
0.409937
-0.0105439
0.393166
-0.012653
0.376873
-0.0152525
0.360808
-0.017975
0.345317
-0.0207183
0.330915
-0.0236879
0.317405
-0.0269015
0.304255
-0.0303003
0.29155
-0.0341471
0.2794
-0.0384888
0.267267
-0.0428601
0.25493
-0.0471383
0.24272
-0.0513723
0.23058
-0.0553622
0.218434
-0.0590485
0.206463
-0.0624805
0.194885
-0.0651444
0.183526
-0.0671483
0.172974
-0.0687507
0.163521
-0.0695657
0.153828
-0.069587
0.143101
-0.0665207
0.127126
-0.0566353
0.100192
-0.034419
0.0565937
-0.0119684
0.0114014
-0.00391219
-0.00484272
-0.00135591
-0.00893327
-0.000582394
-0.00908762
-0.000385173
-0.00750071
-0.00371713
-0.00158903
0.99312
0.00200811
0.932668
-0.000169075
0.932133
0.00121128
0.850807
-0.000460239
0.841199
-0.00029784
0.775961
-0.00144883
0.758999
-0.00124312
0.707219
-0.00205617
0.685439
-0.00200162
0.644803
-0.00264592
0.620024
-0.00270633
0.587735
-0.00337992
0.56231
-0.00356126
0.535837
-0.00411389
0.511547
-0.00451763
0.488895
-0.00502224
0.467152
-0.0055184
0.447062
-0.00605491
0.42816
-0.00675399
0.410636
-0.00783974
0.394252
-0.00956455
0.378598
-0.0119612
0.363205
-0.0147465
0.348103
-0.0177158
0.333884
-0.0211026
0.320792
-0.0251208
0.308273
-0.0295437
0.295973
-0.0340489
0.283905
-0.0387813
0.272
-0.0438771
0.260025
-0.0490618
0.247905
-0.0540525
0.235571
-0.0586866
0.223069
-0.0627669
0.210543
-0.0658808
0.197999
-0.0686337
0.186279
-0.0710794
0.17542
-0.0721439
0.164585
-0.071803
0.153487
-0.0691293
0.140427
-0.062781
0.120778
-0.0479911
0.085402
-0.0225203
0.0311229
-0.00745875
-0.00366016
-0.000583181
-0.0117183
0.00232461
-0.0118411
0.00230533
-0.00906834
0.000835071
-0.00603045
-0.00288206
-0.00305237
0.996172
5.81177e-06
0.92961
-0.00318041
0.93532
-0.00133452
0.848961
-0.00346375
0.843328
-0.00245815
0.774955
-0.00378436
0.760325
-0.00328825
0.706723
-0.00439435
0.686545
-0.00427849
0.644688
-0.00519186
0.620937
-0.00521765
0.587761
-0.00590589
0.562999
-0.00609193
0.536024
-0.00662786
0.512083
-0.00699183
0.489259
-0.00747023
0.46763
-0.00793307
0.447525
-0.00838273
0.42861
-0.0088324
0.411085
-0.00944257
0.394862
-0.0105282
0.379684
-0.0123297
0.365006
-0.0147012
0.350474
-0.0172339
0.336417
-0.0198325
0.32339
-0.0228146
0.311255
-0.0264342
0.299592
-0.0308889
0.28836
-0.0360258
0.277137
-0.041547
0.265547
-0.0472622
0.25362
-0.0530594
0.241368
-0.0586243
0.228634
-0.0638014
0.215721
-0.0685263
0.202723
-0.0723011
0.190054
-0.0743474
0.177466
-0.0749869
0.165225
-0.073227
0.151727
-0.0673606
0.13456
-0.0537029
0.10712
-0.0332181
0.0649172
-0.0072977
0.00520251
0.00521361
-0.0161715
0.0105443
-0.017049
0.0115701
-0.0128669
0.00904977
-0.00654803
0.00395124
-0.000931923
0.00106918
-0.00642644
1.0026
-0.00101439
0.924198
-0.00403544
0.938341
-0.00227521
0.847201
-0.00373472
0.844788
-0.0031236
0.774344
-0.00444192
0.761643
-0.00459782
0.706879
-0.00534921
0.687296
-0.00546616
0.644805
-0.00585826
0.621329
-0.0059216
0.587824
-0.00623836
0.563315
-0.00631354
0.536099
-0.00659455
0.512364
-0.00671011
0.489375
-0.0069133
0.467833
-0.00711307
0.447725
-0.00737198
0.428869
-0.00767955
0.411393
-0.00807344
0.395256
-0.00875971
0.38037
-0.010081
0.366328
-0.0122065
0.3526
-0.0149501
0.339161
-0.0181197
0.32656
-0.0218012
0.314937
-0.0260013
0.303793
-0.0305587
0.292917
-0.0356824
0.28226
-0.0416442
0.271508
-0.0482574
0.260233
-0.0550663
0.248177
-0.0617764
0.235344
-0.0678517
0.221796
-0.0726524
0.207524
-0.0764368
0.193839
-0.0792533
0.180283
-0.0795182
0.16549
-0.0743869
0.146596
-0.0606626
0.120836
-0.0390974
0.0855548
-0.0094523
0.035272
0.0143671
-0.0186169
0.0223849
-0.0241893
0.0239692
-0.0186332
0.021316
-0.0102137
0.0150454
-0.000277381
0.00684191
0.00727154
0.00791109
-0.0063763
1.00897
-0.00246673
0.920288
-0.00527516
0.941149
-0.00480511
0.846731
-0.00659047
0.846573
-0.00651403
0.774268
-0.00745469
0.762584
-0.0076773
0.707102
-0.00829118
0.68791
-0.00857949
0.645093
-0.00914881
0.621899
-0.00945767
0.588133
-0.00996229
0.56382
-0.0101212
0.536258
-0.010417
0.51266
-0.0105501
0.489508
-0.010713
0.467996
-0.0107983
0.44781
-0.0108478
0.428919
-0.0108597
0.411405
-0.01088
0.395276
-0.0110284
0.380518
-0.0115752
0.366874
-0.0127618
0.353786
-0.0144716
0.340871
-0.016459
0.328547
-0.0189034
0.317381
-0.0221794
0.307069
-0.026463
0.297201
-0.0317528
0.28755
-0.0378526
0.277608
-0.0447823
0.267163
-0.0524472
0.255842
-0.0603381
0.243234
-0.0680751
0.229533
-0.075438
0.214887
-0.0803782
0.198779
-0.0827827
0.182687
-0.0804573
0.163164
-0.0714323
0.137571
-0.0527076
0.102111
-0.0212932
0.0541405
0.0128147
0.00116406
0.026989
-0.0327911
0.0306451
-0.0278454
0.0295086
-0.0174967
0.0240327
-0.00473784
0.0166772
0.00707812
0.00769566
0.0162531
0.0156068
-0.0100354
1.01901
-0.00496953
0.915223
-0.00536031
0.94154
-0.00733175
0.848702
-0.00669149
0.845933
-0.00915269
0.776729
-0.00852107
0.761952
-0.00986574
0.708446
-0.00943276
0.687477
-0.0103825
0.646043
-0.0104542
0.62197
-0.0106298
0.588308
-0.0106946
0.563885
-0.0108718
0.536435
-0.0109514
0.51274
-0.0109575
0.489514
-0.0109144
0.467953
-0.0108669
0.447763
-0.010832
0.428884
-0.0107735
0.411346
-0.0106723
0.395175
-0.0106002
0.380446
-0.0108048
0.367079
-0.0116917
0.354673
-0.0134398
0.342619
-0.0157372
0.330845
-0.01842
0.320064
-0.0217603
0.310409
-0.0258254
0.301266
-0.0307872
0.292512
-0.0370301
0.283851
-0.0446373
0.27477
-0.0534
0.264604