/*--------------------------------*- C++ -*----------------------------------*\
| =========                 |                                                 |
| \\      /  F ield         | OpenFOAM: The Open Source CFD Toolbox           |
|  \\    /   O peration     | Version:  v1912                                 |
|   \\  /    A nd           | Website:  www.openfoam.com                      |
|    \\/     M anipulation  |                                                 |
\*---------------------------------------------------------------------------*/
FoamFile
{
    version     2.0;
    format      ascii;
    class       volVectorField;
    location    "0.03";
    object      U;
}
// * * * * * * * * * * * * * * * * * * * * * * * * * * * * * * * * * * * * * //

dimensions      [0 1 -1 0 0 0 0];


internalField   nonuniform List<vector> 
6600
(
(39.8097 -0.0568719 0)
(40.086 -0.0824155 1.88938e-20)
(40.1421 -0.0241399 1.324e-18)
(40.1823 0.0217118 0)
(40.2382 0.059562 1.61604e-18)
(40.2836 0.109654 5.53086e-20)
(40.3108 0.176097 -6.11766e-20)
(40.3753 0.25301 -6.75405e-20)
(40.4404 0.361304 1.37431e-18)
(40.4835 0.510653 -1.34413e-19)
(40.5256 0.706024 0)
(40.5564 0.933164 -1.69499e-18)
(40.5754 1.17571 0)
(40.5889 1.4052 -1.9034e-18)
(40.5885 1.61975 -2.55445e-18)
(40.5763 1.82821 -1.3593e-18)
(40.5538 2.03745 0)
(40.5292 2.25236 0)
(40.5063 2.48157 2.20671e-18)
(40.481 2.72632 -2.05964e-18)
(40.451 2.99669 -3.01407e-19)
(40.4133 3.29104 -1.09126e-18)
(40.3689 3.61488 -2.02452e-18)
(40.3185 3.96785 4.47896e-19)
(40.2572 4.35222 1.6232e-18)
(40.1767 4.77678 0)
(40.0659 5.23543 3.95119e-18)
(39.9618 5.73075 0)
(39.8751 6.27117 -1.93046e-18)
(39.7943 6.86708 -1.23269e-18)
(39.6979 7.5281 -3.57104e-19)
(39.604 8.26542 -1.48717e-18)
(39.5278 9.07897 -6.27967e-19)
(39.4787 9.9699 1.19381e-18)
(39.416 10.9324 3.88854e-19)
(39.2798 11.9735 1.29468e-18)
(39.0632 13.0921 2.61457e-18)
(38.9234 14.2929 2.30662e-18)
(38.8916 15.5272 -1.62328e-18)
(38.8512 16.8497 1.64322e-18)
(38.7775 18.2847 7.81567e-19)
(38.734 19.8473 0)
(38.7158 21.5117 2.51292e-19)
(38.7398 23.3059 -4.31404e-19)
(38.7709 25.2013 0)
(38.8433 27.2699 -1.85675e-18)
(38.8748 29.3091 -4.51412e-18)
(39.3432 31.7947 0)
(37.8695 33.1301 0)
(28.1399 26.8053 -2.75885e-18)
(39.7616 -0.131462 1.10141e-18)
(40.1769 -0.134174 -1.17876e-18)
(40.1925 -0.126717 0)
(40.2612 -0.0922746 -2.21422e-20)
(40.3843 -0.0454621 1.55716e-18)
(40.411 0.0302898 5.36523e-20)
(40.4691 0.116868 -3.47387e-22)
(40.5117 0.234153 -6.58798e-20)
(40.5576 0.39603 0)
(40.6174 0.61876 -2.50408e-18)
(40.6577 0.858646 -8.99732e-20)
(40.6787 1.11228 1.5632e-18)
(40.6928 1.34648 1.63136e-18)
(40.6998 1.56504 1.08634e-18)
(40.7019 1.77355 -1.12478e-21)
(40.6988 1.97868 1.57016e-19)
(40.6935 2.1894 -1.36617e-18)
(40.686 2.41179 0)
(40.6739 2.65321 0)
(40.6558 2.91402 2.09863e-18)
(40.6385 3.19989 2.85682e-19)
(40.618 3.51195 -1.53191e-18)
(40.5919 3.86043 -1.36235e-18)
(40.5631 4.24595 -1.52697e-18)
(40.5381 4.66945 -1.25011e-18)
(40.5227 5.13106 -5.09696e-19)
(40.4947 5.6391 -6.53641e-19)
(40.4467 6.18889 -6.37402e-19)
(40.3953 6.78238 1.89712e-18)
(40.355 7.42042 3.07618e-19)
(40.3138 8.10452 -2.33789e-18)
(40.2497 8.83536 2.09241e-18)
(40.1639 9.61395 1.34081e-18)
(40.0751 10.4481 -1.75872e-18)
(40.0076 11.3386 4.20517e-19)
(40.0052 12.3015 -1.3242e-18)
(40.0329 13.3401 6.94467e-19)
(40.0408 14.5113 -8.8744e-19)
(40.0409 15.8038 -2.71686e-19)
(40.0849 17.1623 -2.38558e-19)
(40.1413 18.6127 0)
(40.2138 20.1548 0)
(40.3357 21.77 7.6364e-19)
(40.513 23.5027 -9.35567e-19)
(40.7819 25.3201 -3.30055e-18)
(41.1294 27.3083 1.91741e-18)
(41.4085 29.242 6.64874e-18)
(42.0592 31.5427 0)
(40.6336 32.4463 -6.89474e-18)
(29.5443 25.775 3.06171e-18)
(39.8749 -0.436494 -3.68578e-20)
(40.3815 -0.392825 1.20344e-18)
(40.3372 -0.336057 1.2493e-18)
(40.5433 -0.257043 -4.69803e-22)
(40.5276 -0.116924 -1.35882e-19)
(40.5801 -0.011803 5.21933e-20)
(40.5967 0.127502 0)
(40.6056 0.319436 0)
(40.6805 0.575163 0)
(40.7259 0.836217 1.34924e-18)
(40.7715 1.08248 -8.61224e-20)
(40.799 1.30063 -1.57364e-18)
(40.8141 1.50885 -8.24993e-19)
(40.8221 1.70458 1.78001e-18)
(40.8211 1.89531 1.02228e-18)
(40.8212 2.09694 -1.48837e-19)
(40.8314 2.30731 2.81454e-18)
(40.8462 2.53468 -1.41716e-18)
(40.8558 2.78641 -1.58075e-18)
(40.8559 3.06277 0)
(40.8589 3.36149 -9.81932e-19)
(40.8654 3.67946 1.22799e-18)
(40.8717 4.02422 1.37871e-18)
(40.8655 4.4002 1.54626e-18)
(40.8411 4.81396 1.32838e-18)
(40.8107 5.26304 -1.45719e-19)
(40.7826 5.75384 -2.47688e-19)
(40.7733 6.29335 -6.9895e-19)
(40.7661 6.87756 -2.9772e-19)
(40.7628 7.51588 1.12137e-18)
(40.7688 8.20791 3.45772e-19)
(40.8016 8.97523 0)
(40.8536 9.81062 -1.43373e-18)
(40.9361 10.7247 3.2622e-19)
(40.9975 11.7054 6.54638e-19)
(40.9855 12.7551 5.90752e-19)
(40.9403 13.8538 -5.95924e-19)
(41.0051 14.9873 -1.27067e-19)
(41.1855 16.1818 5.05209e-19)
(41.3876 17.472 0)
(41.592 18.831 1.26924e-18)
(41.8431 20.2991 0)
(42.1421 21.8562 0)
(42.5165 23.5139 3.35295e-18)
(42.936 25.2355 2.00215e-18)
(43.4266 27.0978 -3.74391e-18)
(43.954 28.9976 -3.93482e-18)
(44.706 31.0507 0)
(43.2358 31.4941 -4.25305e-18)
(30.6049 24.3637 4.6103e-18)
(39.495 -1.2637 -1.07836e-18)
(40.7768 -0.485744 8.60925e-21)
(40.4851 -0.39457 -1.2843e-18)
(40.7379 -0.233249 -1.22318e-18)
(40.6285 -0.0790284 -1.45224e-18)
(40.6765 0.061335 -7.39964e-19)
(40.6753 0.258941 -5.47895e-20)
(40.7516 0.563697 0)
(40.7902 0.821733 1.03021e-18)
(40.8349 1.07028 1.20986e-18)
(40.8658 1.26753 -8.16471e-20)
(40.8953 1.46035 -9.02044e-20)
(40.9288 1.64593 -7.29615e-19)
(40.956 1.82265 -1.8156e-19)
(40.9666 2.00927 3.94044e-20)
(40.975 2.20861 -1.37505e-19)
(40.9905 2.42103 3.13532e-20)
(41.014 2.64996 1.59984e-18)
(41.0393 2.9027 2.11686e-18)
(41.0571 3.18743 0)
(41.0732 3.5055 1.24854e-19)
(41.0921 3.85536 0)
(41.1241 4.23558 0)
(41.1677 4.64708 -3.11207e-19)
(41.2168 5.09483 9.6228e-19)
(41.2649 5.58142 1.01211e-18)
(41.2941 6.11228 -2.05001e-19)
(41.3131 6.68804 9.8082e-19)
(41.3505 7.30884 0)
(41.4029 7.97582 0)
(41.4501 8.6758 3.53155e-19)
(41.4882 9.417 0)
(41.5078 10.1924 3.98171e-19)
(41.5457 11.0181 3.18107e-19)
(41.6582 11.902 -5.70193e-19)
(41.8799 12.8606 -1.93192e-19)
(42.1117 13.9073 -7.07602e-19)
(42.2841 15.0691 2.88781e-19)
(42.483 16.2999 4.27783e-19)
(42.7845 17.5804 5.0235e-19)
(43.1094 18.9442 -3.39246e-18)
(43.4738 20.3575 0)
(43.9226 21.8235 0)
(44.459 23.3724 -2.05221e-18)
(45.104 24.9652 -3.61256e-18)
(45.8308 26.696 -9.00712e-19)
(46.5377 28.4706 -6.16069e-18)
(47.2812 30.2234 6.80637e-18)
(45.4911 30.2411 9.44705e-18)
(31.2807 22.6539 0)
(38.3643 -1.27394 -3.75013e-21)
(41.4097 -0.0711708 9.71082e-19)
(40.5219 -0.359048 1.09021e-18)
(40.9448 0.0340174 1.26813e-18)
(40.6631 0.107477 0)
(40.7946 0.352077 6.40124e-20)
(40.7982 0.624833 0)
(40.8567 0.859004 -5.63659e-20)
(40.8871 1.06252 -1.92651e-18)
(40.9237 1.23447 -1.21121e-18)
(40.9486 1.39148 7.64598e-20)
(40.9941 1.55348 8.3982e-20)
(41.0418 1.71871 -9.34635e-20)
(41.0836 1.88992 -8.59292e-19)
(41.1193 2.08003 -1.92314e-18)
(41.1504 2.29166 1.25806e-19)
(41.1834 2.52125 -2.20257e-18)
(41.2211 2.76465 1.51212e-19)
(41.2659 3.02173 -7.19105e-19)
(41.3144 3.29836 -3.68198e-19)
(41.3629 3.60171 1.07943e-18)
(41.4053 3.93958 0)
(41.4477 4.31065 0)
(41.4914 4.7159 -4.48771e-19)
(41.535 5.15437 -6.23209e-19)
(41.5865 5.62713 6.21889e-19)
(41.6588 6.13533 -1.55853e-19)
(41.7282 6.68572 0)
(41.806 7.2882 1.37903e-19)
(41.9043 7.94831 -1.53658e-19)
(42.0375 8.67357 -3.58957e-19)
(42.2093 9.46385 -6.58362e-20)
(42.4182 10.3155 6.12538e-20)
(42.6373 11.2251 1.02884e-19)
(42.8187 12.1877 -1.14486e-19)
(42.9453 13.1948 0)
(43.1083 14.2325 3.64818e-19)
(43.4107 15.2936 2.12964e-18)
(43.8122 16.4306 -1.12976e-18)
(44.2467 17.6254 -1.49011e-18)
(44.7253 18.8582 2.14283e-18)
(45.2438 20.1778 0)
(45.8246 21.5533 0)
(46.5043 22.9986 -3.4269e-18)
(47.2548 24.465 7.51598e-18)
(48.074 26.0159 2.013e-18)
(48.9633 27.709 3.72338e-18)
(49.6432 29.1733 -8.15376e-18)
(47.4605 28.7359 6.81445e-19)
(31.4962 20.6593 -1.27954e-17)
(37.1545 -0.367537 9.11189e-19)
(41.6793 0.248917 -1.06784e-19)
(40.4057 -0.170691 -1.10513e-18)
(41.2869 0.33269 5.29897e-19)
(40.6726 0.48059 0)
(41.0494 0.745268 7.31241e-19)
(40.8783 0.954042 -2.35599e-20)
(40.9745 1.11418 -7.95687e-19)
(40.9947 1.25752 9.58242e-19)
(41.0212 1.37946 0)
(41.0704 1.50531 6.90508e-20)
(41.1302 1.63527 4.94771e-19)
(41.185 1.77659 -7.0981e-19)
(41.2363 1.93592 9.30882e-20)
(41.2866 2.12037 9.6422e-19)
(41.3357 2.3348 -1.12173e-19)
(41.386 2.57577 7.18571e-19)
(41.4356 2.84082 -1.3345e-19)
(41.4919 3.12595 1.40324e-19)
(41.5619 3.42842 3.88321e-19)
(41.6426 3.75258 4.93103e-19)
(41.7238 4.10754 4.4142e-21)
(41.812 4.49525 1.84661e-19)
(41.9182 4.91955 6.61105e-19)
(42.0393 5.38261 0)
(42.1585 5.89717 -4.87683e-19)
(42.2696 6.45054 8.15521e-20)
(42.3881 7.03992 -2.34095e-20)
(42.5161 7.65945 -9.47408e-20)
(42.6564 8.31239 5.01179e-20)
(42.8005 9.00248 1.66066e-19)
(42.9455 9.72947 1.09927e-20)
(43.1001 10.4948 0)
(43.2941 11.2969 0)
(43.6027 12.154 0)
(44.0284 13.0741 0)
(44.4458 14.0764 1.76083e-18)
(44.7947 15.1598 -3.39881e-18)
(45.1964 16.2815 0)
(45.7254 17.447 3.96344e-20)
(46.2925 18.6608 -3.44727e-19)
(46.918 19.8821 -5.01269e-18)
(47.6298 21.1247 2.76876e-18)
(48.4326 22.4114 0)
(49.3464 23.7128 2.71481e-18)
(50.3383 25.1286 -9.86011e-18)
(51.2833 26.6592 7.03824e-18)
(51.7746 27.7885 5.24413e-18)
(48.8689 26.9259 1.92324e-17)
(31.1663 18.3856 -1.44294e-17)
(36.7328 0.717673 -9.09987e-19)
(41.6296 0.29427 -1.62285e-18)
(39.9362 0.424474 1.55357e-20)
(41.4916 0.450586 -5.32122e-19)
(40.6098 0.709447 5.79362e-19)
(41.2086 0.844396 -1.97777e-20)
(40.9079 1.05393 7.02877e-19)
(41.1211 1.19237 7.97097e-19)
(41.0872 1.31816 8.13519e-19)
(41.1596 1.46636 -2.85837e-20)
(41.2168 1.60011 -4.60541e-19)
(41.2976 1.72013 -7.78045e-20)
(41.3713 1.8636 6.29585e-19)
(41.4445 2.01549 0)
(41.5163 2.1903 0)
(41.5832 2.39388 4.58959e-20)
(41.6472 2.62186 7.4574e-19)
(41.7094 2.87588 0)
(41.7811 3.1553 5.52934e-20)
(41.875 3.45751 -6.10754e-19)
(41.9905 3.78381 -5.20092e-19)
(42.108 4.13825 1.25053e-19)
(42.2122 4.52173 0)
(42.3096 4.93244 -3.10298e-19)
(42.4241 5.36383 -4.40768e-20)
(42.5667 5.82689 4.91686e-20)
(42.7271 6.33645 0)
(42.8976 6.90477 0)
(43.0865 7.52332 -1.48808e-19)
(43.3075 8.18862 2.39128e-19)
(43.5671 8.9013 -3.60641e-19)
(43.8741 9.66913 2.14309e-19)
(44.2259 10.4988 4.37181e-19)
(44.5823 11.3753 -1.11054e-18)
(44.8853 12.2826 2.05553e-18)
(45.1569 13.2032 7.65121e-19)
(45.5159 14.1353 -1.2237e-18)
(46.0309 15.083 1.67151e-18)
(46.6183 16.1012 -2.82347e-18)
(47.2473 17.1453 5.53222e-20)
(47.9421 18.2073 -4.07303e-19)
(48.6559 19.3286 2.57867e-18)
(49.4375 20.4661 3.89422e-18)
(50.3229 21.632 -4.32608e-18)
(51.2855 22.7821 2.74002e-18)
(52.2847 23.978 0)
(53.3163 25.3784 4.30699e-18)
(53.5842 26.2052 6.45977e-18)
(49.8765 24.8859 -1.33799e-17)
(30.1809 15.8578 -4.20502e-18)
(37.1114 1.62276 8.15042e-19)
(41.5472 0.15624 7.74744e-19)
(39.591 0.936373 7.34757e-21)
(41.6482 0.470274 -4.32766e-19)
(40.5419 0.912339 -1.14777e-18)
(41.4042 0.748727 5.48031e-19)
(40.9811 1.07229 -1.31825e-18)
(41.2815 1.09476 3.18327e-19)
(41.205 1.26966 -7.90868e-19)
(41.2971 1.43404 -3.98918e-19)
(41.3542 1.57619 9.13828e-19)
(41.4444 1.73312 -5.56561e-19)
(41.5395 1.90336 -4.45257e-19)
(41.6542 2.06941 1.67457e-21)
(41.7672 2.25714 -2.06624e-19)
(41.869 2.46784 2.47864e-19)
(41.9558 2.69824 -3.53524e-19)
(42.0304 2.95052 0)
(42.1058 3.22574 0)
(42.2016 3.52583 0)
(42.3337 3.85545 -3.35355e-20)
(42.5028 4.21929 -1.54392e-19)
(42.6942 4.62405 -7.21634e-21)
(42.8868 5.07269 -2.22152e-20)
(43.0729 5.55617 0)
(43.2622 6.06617 0)
(43.4613 6.59441 -1.83685e-19)
(43.6701 7.15354 1.12031e-19)
(43.8943 7.75055 -1.13908e-19)
(44.1373 8.3883 1.36748e-19)
(44.3901 9.052 7.64823e-20)
(44.6498 9.73327 6.79325e-19)
(44.9298 10.4368 -3.37746e-19)
(45.2798 11.1795 1.3355e-18)
(45.7621 11.9821 -9.42521e-19)
(46.3574 12.8396 -4.74677e-19)
(46.9239 13.7464 2.03206e-19)
(47.4163 14.6912 1.17904e-18)
(47.9794 15.6471 1.21978e-18)
(48.6699 16.6423 1.93036e-18)
(49.4037 17.6524 -3.89285e-19)
(50.2109 18.642 3.5805e-18)
(51.088 19.6285 -3.98273e-18)
(52.0442 20.6277 0)
(53.0973 21.6147 0)
(54.2234 22.7022 0)
(55.1608 23.8763 0)
(55.0327 24.3406 0)
(50.082 22.6017 -7.86207e-18)
(28.46 13.1642 1.28976e-17)
(37.9834 2.27826 -8.16709e-19)
(41.4749 -0.490288 0)
(39.6196 1.25006 0)
(41.8642 0.326215 4.4059e-19)
(40.5219 1.03755 5.41935e-19)
(41.7459 0.618479 -5.48084e-19)
(41.107 1.06742 6.34272e-19)
(41.5755 0.941666 -3.19925e-19)
(41.381 1.22423 2.94389e-19)
(41.5195 1.3202 3.96596e-19)
(41.5346 1.48478 -4.00082e-19)
(41.6005 1.66858 3.1646e-19)
(41.6951 1.84815 6.238e-19)
(41.8281 2.02919 0)
(41.9778 2.22983 2.43134e-19)
(42.1349 2.44627 -2.73224e-19)
(42.2822 2.68314 4.14351e-21)
(42.4144 2.94265 -1.19059e-19)
(42.5363 3.22184 1.08007e-19)
(42.6584 3.51739 0)
(42.7915 3.82935 0)
(42.9415 4.16062 -7.09946e-20)
(43.1117 4.51903 1.64251e-19)
(43.3028 4.91568 2.2462e-19)
(43.5181 5.3549 6.79999e-20)
(43.7624 5.83661 -3.23655e-19)
(44.0274 6.35655 5.34356e-19)
(44.3004 6.90903 -6.9445e-19)
(44.5888 7.48819 3.86544e-19)
(44.9175 8.11129 -3.63157e-19)
(45.2984 8.78998 2.22064e-19)
(45.7303 9.52309 -7.40749e-19)
(46.2033 10.296 5.70688e-19)
(46.6698 11.0902 -9.71923e-19)
(47.0757 11.8824 0)
(47.4668 12.6803 -9.9991e-19)
(47.9778 13.4909 -1.04465e-18)
(48.6482 14.3028 2.36454e-19)
(49.3608 15.1561 2.31037e-18)
(50.1161 16.007 -2.29699e-18)
(50.9411 16.8655 -3.61752e-19)
(51.7589 17.7576 -4.08e-18)
(52.6445 18.6335 9.62016e-18)
(53.6267 19.504 6.43726e-19)
(54.6833 20.3443 7.70969e-19)
(55.7814 21.2839 -3.88173e-18)
(56.514 22.1074 0)
(56.0177 22.3733 7.06071e-18)
(49.7237 20.1733 -3.72018e-18)
(25.8953 10.3544 0)
(38.8738 2.60802 2.40907e-21)
(41.2885 -1.27968 -3.42405e-23)
(40.0406 1.6006 -3.79656e-19)
(42.0427 -0.0620865 0)
(40.5913 1.15901 -6.2737e-21)
(42.0004 0.462036 -1.71642e-19)
(41.2407 1.0831 0)
(41.8944 0.802515 2.07798e-19)
(41.6077 1.20354 -3.10977e-19)
(41.8454 1.17828 1.76224e-20)
(41.8049 1.42578 2.41561e-19)
(41.8659 1.58362 -2.03581e-19)
(41.9326 1.76894 -1.9544e-19)
(42.0314 1.95966 0)
(42.1681 2.15577 0)
(42.337 2.36012 0)
(42.5161 2.58968 -3.63972e-20)
(42.6932 2.85422 1.18144e-19)
(42.8683 3.15446 -5.88489e-20)
(43.053 3.48352 -1.2982e-20)
(43.2604 3.83288 4.06197e-20)
(43.4924 4.19786 4.2273e-20)
(43.7406 4.58061 -4.44232e-19)
(43.9879 4.98873 -4.41121e-19)
(44.2297 5.43277 0)
(44.4901 5.91053 3.38673e-19)
(44.7871 6.42213 -9.71872e-19)
(45.1106 6.97249 6.44485e-19)
(45.4412 7.54734 -3.89939e-19)
(45.7756 8.12856 2.3573e-19)
(46.1205 8.71546 -3.55897e-19)
(46.4821 9.31828 1.34497e-18)
(46.8749 9.9422 -1.56069e-18)
(47.3503 10.6076 2.18079e-18)
(47.9591 11.3345 9.48863e-19)
(48.6703 12.0877 -2.25967e-18)
(49.3357 12.8577 2.85718e-18)
(49.9234 13.6447 -1.89682e-18)
(50.5879 14.4195 2.10833e-20)
(51.3601 15.2179 0)
(52.1694 16.0001 3.29022e-18)
(53.0645 16.7472 2.26602e-18)
(54.0088 17.4784 2.67578e-19)
(55.0186 18.1967 -6.53534e-18)
(56.1112 18.893 -2.70106e-19)
(57.2844 19.7491 -4.6101e-18)
(57.7354 20.2657 0)
(56.468 20.2555 7.42552e-18)
(48.3213 17.5869 -1.24478e-17)
(22.5204 7.60744 0)
(39.564 2.63685 0)
(41.0201 -1.71225 0)
(40.5802 1.92925 2.24514e-19)
(41.9852 -0.478343 -1.00938e-20)
(40.7538 1.32203 1.82482e-19)
(42.1009 0.238972 1.78981e-19)
(41.3181 1.1135 0)
(42.0957 0.652602 -2.08273e-19)
(41.7865 1.15942 1.778e-19)
(42.1373 1.01432 0)
(42.0903 1.34775 -3.21867e-19)
(42.2146 1.44715 -5.18155e-20)
(42.2758 1.66683 -9.64659e-21)
(42.3578 1.87005 1.07554e-20)
(42.4801 2.06234 0)
(42.6389 2.25017 0)
(42.8273 2.44841 8.02907e-20)
(43.0304 2.67238 -6.60575e-20)
(43.2315 2.93599 7.97187e-20)
(43.43 3.24086 -1.82054e-20)
(43.6417 3.5772 4.77851e-20)
(43.8811 3.93545 -3.0665e-20)
(44.1548 4.30884 3.08136e-19)
(44.4571 4.69559 1.4263e-19)
(44.7641 5.10387 -3.33037e-19)
(45.0714 5.54219 -5.40511e-19)
(45.3983 6.00871 3.59306e-19)
(45.7614 6.5109 6.29978e-19)
(46.1622 7.06297 0)
(46.6083 7.66194 0)
(47.0925 8.29436 0)
(47.6167 8.96012 -9.56134e-19)
(48.1747 9.64857 -7.09262e-19)
(48.7194 10.3286 -7.49146e-19)
(49.2019 10.977 1.12088e-18)
(49.6676 11.6446 1.3927e-18)
(50.2666 12.3216 -6.74834e-19)
(51.0234 12.9864 2.03926e-18)
(51.7996 13.6711 -1.19798e-18)
(52.6132 14.3291 -1.61332e-18)
(53.4853 14.9818 -2.01044e-18)
(54.3223 15.6437 2.24174e-18)
(55.2223 16.2653 0)
(56.2091 16.8603 3.66072e-18)
(57.2659 17.4384 -2.04358e-18)
(58.2358 18.0874 2.46846e-18)
(58.3361 18.3323 0)
(56.2475 18.0692 -3.744e-18)
(46.1399 14.9354 2.19836e-18)
(18.1099 4.86547 0)
(40.0941 2.50369 1.03672e-19)
(40.8318 -1.8465 0)
(41.0679 2.10383 2.85526e-19)
(41.817 -0.806541 -9.95999e-20)
(41.0095 1.48085 -1.77277e-19)
(42.1259 -0.00391798 4.25028e-21)
(41.391 1.16604 -4.73012e-21)
(42.2131 0.482711 0)
(41.8787 1.10513 -1.74031e-19)
(42.3194 0.839446 4.21931e-20)
(42.295 1.22272 7.98469e-20)
(42.5004 1.2381 -7.21579e-20)
(42.5843 1.49979 1.74654e-21)
(42.6916 1.70493 1.30048e-22)
(42.8137 1.9207 9.62731e-22)
(42.9569 2.14051 0)
(43.1426 2.35049 -4.62783e-20)
(43.3693 2.56256 8.00241e-20)
(43.6135 2.80085 6.54038e-20)
(43.8599 3.0812 -6.09913e-21)
(44.1183 3.40218 3.42298e-20)
(44.4051 3.75882 0)
(44.7241 4.14855 7.52629e-20)
(45.0713 4.56734 3.2621e-19)
(45.4349 5.00781 4.17367e-19)
(45.803 5.46393 5.43429e-19)
(46.177 5.9337 0)
(46.5651 6.41092 -4.48198e-19)
(46.9614 6.90214 -1.02316e-18)
(47.3758 7.41431 5.8715e-19)
(47.8166 7.93851 -1.31003e-18)
(48.2699 8.46292 -6.68551e-19)
(48.7517 9.00018 1.24235e-18)
(49.3083 9.58727 -4.6099e-19)
(49.9901 10.232 -1.13067e-18)
(50.7649 10.8549 -6.28981e-19)
(51.4804 11.4801 -8.66822e-19)
(52.1064 12.1108 0)
(52.8081 12.7107 -1.45213e-18)
(53.596 13.3299 3.22179e-18)
(54.4079 13.9095 2.02332e-18)
(55.3071 14.4375 -2.41124e-18)
(56.2357 14.939 3.18038e-18)
(57.2167 15.4114 -1.67794e-18)
(58.3375 15.9304 4.27054e-18)
(59.021 16.3057 4.52391e-20)
(58.8068 16.3935 0)
(55.3252 15.7737 7.72219e-18)
(42.5438 12.1135 -6.59285e-18)
(12.7814 2.38039 -2.46458e-18)
(40.5081 2.30732 -1.03761e-19)
(40.7736 -1.84886 7.22589e-20)
(41.5044 2.11611 -1.26205e-19)
(41.6539 -1.01255 9.81508e-20)
(41.3359 1.58697 5.31095e-20)
(42.1225 -0.227027 3.28062e-21)
(41.5398 1.22307 -1.71111e-21)
(42.3119 0.30498 0)
(41.9645 1.067 3.20646e-20)
(42.4606 0.669558 -5.06025e-20)
(42.449 1.08433 0)
(42.7183 1.0015 -7.76423e-22)
(42.8445 1.26898 -2.28677e-20)
(43.0095 1.42122 4.40392e-20)
(43.1597 1.63819 -8.28342e-20)
(43.3135 1.87962 -3.27239e-21)
(43.507 2.10891 1.42469e-20)
(43.7508 2.32546 0)
(44.0211 2.54576 -5.7653e-20)
(44.2856 2.78928 2.09944e-19)
(44.5371 3.06215 -2.48149e-20)
(44.8029 3.35853 0)
(45.116 3.67558 0)
(45.4826 4.02398 -1.57692e-19)
(45.8852 4.41607 7.87387e-20)
(46.308 4.84903 -5.94361e-19)
(46.7454 5.30792 2.38351e-19)
(47.2053 5.78059 -1.41376e-19)
(47.6888 6.27101 4.92716e-19)
(48.1968 6.79023 2.21155e-19)
(48.744 7.35615 7.71086e-19)
(49.3386 7.96115 -8.02964e-19)
(49.9561 8.57246 5.18587e-19)
(50.5573 9.13193 -5.71564e-19)
(51.0909 9.65171 -7.04246e-19)
(51.5894 10.21 -7.83199e-19)
(52.2165 10.7576 0)
(52.9996 11.2857 1.90548e-18)
(53.7815 11.8233 -7.16422e-19)
(54.5843 12.3048 -1.75798e-18)
(55.4297 12.7756 2.11082e-18)
(56.2239 13.2439 -6.82521e-20)
(57.0698 13.656 -1.65445e-18)
(58.006 14.0469 -3.92391e-20)
(58.9847 14.436 -2.1393e-18)
(59.248 14.5641 -5.29926e-18)
(58.3453 14.4266 3.14796e-18)
(53.3403 13.3342 0)
(38.1237 9.23773 -4.50519e-18)
(7.30931 0.295468 8.62508e-18)
(40.8091 2.09267 -1.18901e-22)
(40.7781 -1.79474 -7.2749e-20)
(41.8656 2.01726 1.57752e-20)
(41.5196 -1.13107 5.76601e-22)
(41.656 1.6079 -5.29852e-20)
(42.08 -0.429515 0)
(41.739 1.23551 0)
(42.377 0.119283 5.25857e-22)
(42.0734 1.03054 -3.8386e-20)
(42.5836 0.502999 6.36731e-21)
(42.558 0.973755 9.17117e-22)
(42.873 0.803595 -2.85596e-21)
(43.0205 1.06568 5.13233e-21)
(43.2296 1.14697 -1.14756e-20)
(43.407 1.34452 1.29517e-19)
(43.5755 1.57641 -3.78908e-20)
(43.7801 1.81535 5.12966e-20)
(44.0452 2.05471 1.67995e-20)
(44.374 2.29348 -1.83575e-19)
(44.7377 2.5445 -1.34611e-19)
(45.0894 2.82791 4.79033e-21)
(45.4129 3.14475 -4.12556e-20)
(45.7374 3.47406 0)
(46.0986 3.80753 -2.17569e-19)
(46.5018 4.15786 5.00966e-21)
(46.9356 4.5495 6.10093e-20)
(47.3923 4.98689 6.52077e-20)
(47.8714 5.44493 1.81918e-19)
(48.3608 5.90424 0)
(48.8507 6.34811 1.39173e-19)
(49.3404 6.77152 8.01468e-19)
(49.8455 7.19856 7.5919e-19)
(50.3881 7.65988 -4.23565e-19)
(50.9926 8.19533 8.87974e-19)
(51.7035 8.76018 -7.30069e-19)
(52.5078 9.26853 -4.59517e-19)
(53.2334 9.78049 0)
(53.8491 10.2779 -1.27041e-18)
(54.5334 10.7325 -8.22389e-19)
(55.2895 11.2187 9.18648e-19)
(56.0519 11.6438 -1.12242e-18)
(56.8802 11.998 1.34989e-18)
(57.73 12.3288 0)
(58.7013 12.6704 9.40688e-19)
(59.3581 12.8725 0)
(59.3785 12.8687 1.34803e-18)
(57.5949 12.4767 -3.24117e-18)
(50.3742 10.873 1.85252e-18)
(31.9122 6.1179 0)
(4.14254 -0.605275 5.99642e-19)
(41.0219 1.87356 -9.81565e-24)
(40.8247 -1.67141 -1.05228e-23)
(42.1366 1.84386 -1.62745e-20)
(41.4201 -1.18541 -4.04636e-23)
(41.933 1.53436 -2.31438e-22)
(42.0052 -0.614675 -2.41614e-23)
(41.9488 1.18258 2.68928e-23)
(42.4051 -0.0924098 2.69992e-23)
(42.2064 0.942664 3.33322e-21)
(42.6899 0.297392 -4.05154e-22)
(42.6686 0.835075 -2.65686e-22)
(43.0339 0.579464 7.04488e-22)
(43.1976 0.843118 2.56014e-20)
(43.4661 0.846194 -3.89093e-20)
(43.6854 1.00754 -5.84885e-20)
(43.8826 1.18903 3.76702e-20)
(44.0852 1.39275 -4.96792e-20)
(44.3113 1.61825 -2.57365e-21)
(44.5974 1.84028 -3.32271e-21)
(44.9551 2.05307 0)
(45.3523 2.28384 -5.43313e-21)
(45.7495 2.55646 -3.45751e-21)
(46.1427 2.8627 3.86494e-21)
(46.5536 3.18087 0)
(46.9918 3.50107 0)
(47.4444 3.83049 2.27846e-19)
(47.9106 4.19485 0)
(48.4171 4.60943 -1.82176e-19)
(48.9792 5.07178 0)
(49.5764 5.5789 9.52184e-21)
(50.1908 6.10847 -3.65759e-19)
(50.815 6.63771 2.62524e-20)
(51.4439 7.1531 -5.46771e-19)
(52.0685 7.6006 4.93652e-20)
(52.6358 8.03877 3.28419e-19)
(53.133 8.51786 5.17616e-19)
(53.7534 8.96444 -1.82882e-20)
(54.5214 9.40022 0)
(55.2655 9.83188 -1.31144e-20)
(56.0025 10.179 1.56411e-20)
(56.7599 10.52 0)
(57.4715 10.8592 -2.20577e-20)
(58.2379 11.1503 -1.0546e-19)
(59.0886 11.4288 -8.07429e-19)
(59.3336 11.4871 -1.71435e-20)
(58.782 11.3427 0)
(55.4585 10.6464 0)
(45.6803 8.46836 2.60259e-19)
(24.7088 3.37063 -2.57154e-19)
(1.46592 -0.586179 5.88553e-19)
(41.1631 1.66163 -7.03474e-21)
(40.8644 -1.54987 -8.11962e-21)
(42.3151 1.6309 -3.28513e-21)
(41.3462 -1.19989 -1.72236e-21)
(42.1434 1.40026 -9.81738e-22)
(41.9176 -0.751563 -5.13919e-21)
(42.1176 1.0869 0)
(42.3745 -0.303086 0)
(42.3063 0.832868 1.01904e-20)
(42.7212 0.0802904 4.05127e-22)
(42.7168 0.688427 -2.28524e-20)
(43.098 0.359778 -1.77469e-21)
(43.2603 0.644168 -4.55743e-20)
(43.5835 0.58187 6.29404e-20)
(43.8504 0.722418 8.97051e-20)
(44.1186 0.850797 0)
(44.3803 1.01952 0)
(44.6358 1.23994 2.57329e-21)
(44.9275 1.47149 3.32221e-21)
(45.2874 1.69046 -1.54166e-19)
(45.7045 1.90966 5.43224e-21)
(46.1378 2.15998 0)
(46.5694 2.45475 0)
(47.023 2.77797 -4.86312e-20)
(47.5186 3.11651 -2.44284e-19)
(48.0345 3.46603 7.5841e-20)
(48.5288 3.81656 0)
(49.003 4.16824 -2.21904e-19)
(49.4978 4.52977 0)
(50.0329 4.90935 -9.51937e-21)
(50.5868 5.30109 0)
(51.1537 5.68677 0)
(51.7423 6.09396 1.48269e-19)
(52.3548 6.57528 1.76652e-19)
(53.0506 7.05956 0)
(53.8633 7.49687 0)
(54.573 7.95054 1.82802e-20)
(55.1573 8.35863 0)
(55.7942 8.72817 1.31074e-20)
(56.4834 9.13236 -5.27672e-19)
(57.1641 9.4652 6.19203e-19)
(57.8753 9.72832 6.16047e-20)
(58.6986 10.0181 4.22537e-20)
(59.1885 10.1653 -8.67108e-19)
(59.187 10.1634 -5.54842e-19)
(57.8159 9.9148 3.3383e-18)
(52.7312 9.0048 -1.52009e-18)
(39.6977 6.50518 -1.80095e-18)
(14.4424 1.26221 1.48136e-18)
(-0.581292 -0.108981 0)
(41.2431 1.44838 6.98851e-21)
(40.8718 -1.41461 5.76037e-21)
(42.4597 1.37746 3.31121e-21)
(41.2933 -1.19242 5.97199e-21)
(42.2976 1.20328 1.29708e-21)
(41.8253 -0.870806 5.09288e-21)
(42.2806 0.913152 9.06363e-22)
(42.324 -0.50725 -1.00908e-21)
(42.4279 0.652747 -8.13236e-21)
(42.7464 -0.186107 -2.28654e-21)
(42.7896 0.478378 2.44298e-20)
(43.1658 0.070389 8.78185e-20)
(43.3222 0.381688 -6.47174e-20)
(43.6774 0.252356 -5.65105e-20)
(43.9615 0.372593 -2.96639e-19)
(44.2758 0.429028 1.65713e-20)
(44.5752 0.533078 -1.84976e-20)
(44.8457 0.701675 2.11864e-19)
(45.1225 0.896051 3.43388e-20)
(45.4539 1.08774 1.1563e-19)
(45.8681 1.26462 0)
(46.3359 1.44887 0)
(46.8053 1.67712 0)
(47.278 1.94803 0)
(47.7954 2.23782 2.37972e-19)
(48.3683 2.55449 -6.31602e-19)
(48.96 2.91065 0)
(49.5372 3.28927 6.97538e-19)
(50.105 3.67381 0)
(50.6992 4.09183 0)
(51.3369 4.56346 -8.46781e-19)
(51.9854 5.05962 5.18068e-19)
(52.6206 5.52431 -1.20332e-18)
(53.264 5.90976 3.45713e-19)
(53.8443 6.29703 0)
(54.3124 6.71603 0)
(54.9027 7.0922 6.3878e-19)
(55.6268 7.49566 -2.204e-18)
(56.3113 7.87644 0)
(56.9762 8.17897 -1.59069e-18)
(57.6269 8.47456 2.43271e-18)
(58.2795 8.78256 -2.78975e-18)
(58.9401 9.05118 1.51175e-18)
(59.0801 9.13319 -1.87954e-18)
(58.5715 9.11157 5.08066e-18)
(55.8542 8.73054 -4.52231e-18)
(47.9506 7.47412 3.01613e-18)
(30.776 4.44456 -6.72185e-18)
(6.30537 0.293315 8.00342e-18)
(-1.89826 0.286451 -5.15022e-18)
(41.2596 1.27195 -1.37728e-20)
(40.8395 -1.28652 1.06341e-20)
(42.5399 1.16211 0)
(41.1961 -1.14268 -4.33036e-21)
(42.3934 1.00374 -4.26179e-20)
(41.7142 -0.946051 1.31457e-21)
(42.3483 0.755937 0)
(42.2202 -0.675507 0)
(42.4782 0.481412 -5.08653e-21)
(42.6757 -0.403956 5.66576e-21)
(42.7904 0.281343 -1.38816e-19)
(43.1299 -0.193112 1.07474e-19)
(43.2896 0.14961 1.13157e-19)
(43.6665 -0.0406444 -1.66395e-19)
(43.9695 0.0823303 1.97995e-19)
(44.3464 0.084874 3.63144e-20)
(44.7217 0.147602 -3.96185e-19)
(45.0749 0.274893 -6.64876e-19)
(45.4056 0.44571 0)
(45.7388 0.646446 3.63059e-19)
(46.1282 0.839941 4.556e-19)
(46.5962 1.01271 0)
(47.0996 1.20489 -7.07143e-19)
(47.5976 1.45086 0)
(48.1175 1.73011 0)
(48.6919 2.0165 6.29674e-19)
(49.2969 2.331 3.97235e-19)
(49.8979 2.68657 9.93352e-19)
(50.4782 3.03811 0)
(51.0282 3.35042 0)
(51.5703 3.66361 3.92926e-19)
(52.1567 4.00392 5.03795e-19)
(52.7859 4.39315 1.92603e-18)
(53.3954 4.84537 5.04784e-20)
(54.0785 5.28922 5.80178e-20)
(54.8888 5.69511 -2.13586e-18)
(55.5839 6.13903 -7.59708e-20)
(56.1504 6.51069 2.94133e-18)
(56.7475 6.86308 1.79007e-18)
(57.3439 7.22552 1.03341e-18)
(57.9519 7.54899 2.505e-18)
(58.6585 7.88814 1.21311e-19)
(58.9769 8.07975 -3.07785e-18)
(58.9061 8.1671 -1.92759e-18)
(57.5601 8.10244 -5.59069e-18)
(52.8819 7.52811 6.3732e-18)
(41.5852 5.85196 -2.86846e-18)
(20.0492 2.28659 0)
(1.69188 0.154819 0)
(-2.56855 0.430318 1.00247e-18)
(41.2534 1.06711 5.83128e-20)
(40.796 -1.15469 2.33166e-20)
(42.5947 0.893873 -3.67491e-20)
(41.1156 -1.09332 1.09699e-21)
(42.4734 0.698494 9.99282e-20)
(41.5794 -0.982377 -1.80927e-21)
(42.4382 0.493926 0)
(42.1132 -0.839643 -1.25851e-19)
(42.5383 0.247587 -5.76902e-21)
(42.6133 -0.652943 -1.30669e-21)
(42.8178 0.018671 2.97046e-19)
(43.092 -0.494511 -1.8121e-19)
(43.2652 -0.147 2.57694e-21)
(43.6166 -0.395957 1.46217e-19)
(43.8971 -0.282893 0)
(44.2721 -0.353134 0)
(44.6534 -0.349781 3.0587e-19)
(45.0459 -0.307446 5.06673e-19)
(45.4342 -0.221924 0)
(45.8126 -0.078618 -3.61922e-19)
(46.2171 0.0895702 -4.54091e-19)
(46.6902 0.241444 -1.54287e-19)
(47.2235 0.381425 1.38896e-19)
(47.7639 0.553989 6.78628e-19)
(48.3023 0.779802 2.63765e-19)
(48.8916 1.03416 3.55826e-19)
(49.5399 1.31362 -1.21009e-18)
(50.2125 1.6543 -9.94466e-19)
(50.9055 2.0685 1.26038e-18)
(51.612 2.5072 -1.52915e-18)
(52.2958 2.93474 0)
(52.9253 3.36935 0)
(53.5348 3.78417 7.03451e-20)
(54.193 4.15164 -1.49694e-18)
(54.7722 4.52158 1.86221e-18)
(55.2241 4.91521 3.33041e-18)
(55.7797 5.25524 -1.25506e-18)
(56.4572 5.66259 -3.07881e-18)
(57.0852 6.04953 -3.58415e-18)
(57.7272 6.39783 -2.15226e-18)
(58.35 6.74463 -1.05324e-19)
(58.8944 7.09404 2.57252e-18)
(58.9735 7.21186 0)
(58.3766 7.37891 1.90634e-18)
(55.6423 7.2044 2.19181e-18)
(48.1851 6.3545 2.47822e-18)
(32.2932 4.15777 8.38589e-18)
(8.18352 0.762537 -3.1217e-18)
(-1.54744 0.456369 0)
(-2.75696 0.362247 0)
(41.1638 0.936726 1.06512e-20)
(40.7115 -1.02368 -3.13222e-20)
(42.5208 0.736345 3.77489e-20)
(40.9866 -1.01514 -6.19317e-20)
(42.4719 0.518622 -6.14771e-20)
(41.415 -0.968897 -3.7248e-22)
(42.4409 0.288621 2.75691e-21)
(41.9284 -0.913037 1.16607e-19)
(42.5031 0.0499767 1.00119e-20)
(42.457 -0.83476 1.61462e-20)
(42.7493 -0.189286 -1.4609e-19)
(42.9691 -0.736827 -2.38406e-20)
(43.1881 -0.394544 -2.66392e-19)
(43.5267 -0.673723 -3.52147e-19)
(43.8247 -0.552748 6.10444e-20)
(44.2195 -0.661692 -6.80939e-20)
(44.6174 -0.675992 0)
(45.0427 -0.686317 -4.74777e-19)
(45.4682 -0.660504 0)
(45.8775 -0.567759 0)
(46.2949 -0.424687 0)
(46.7704 -0.268334 -3.17804e-19)
(47.3288 -0.122095 1.08944e-18)
(47.9266 0.0347845 -9.09914e-19)
(48.5086 0.231703 0)
(49.0936 0.456369 -3.68518e-19)
(49.7175 0.690719 -1.33391e-18)
(50.3559 0.949626 -2.12679e-18)
(50.9977 1.2553 -1.91675e-18)
(51.6501 1.59721 1.49891e-18)
(52.2914 1.95008 -1.86507e-18)
(52.9417 2.29632 1.07991e-18)
(53.5933 2.67016 2.70152e-18)
(54.184 3.09215 0)
(54.8566 3.51004 1.94702e-18)
(55.6589 3.91186 -4.46463e-18)
(56.3675 4.36685 -9.50406e-20)
(56.9419 4.74801 3.04566e-18)
(57.5649 5.13172 1.78941e-18)
(58.1339 5.52134 0)
(58.7863 5.97036 2.38063e-18)
(59.0333 6.21935 -2.77767e-18)
(58.8256 6.47032 6.55183e-18)
(57.3454 6.584 0)
(52.4687 6.28167 -8.64824e-18)
(41.0418 5.00507 2.38962e-18)
(20.0004 2.3086 -2.7289e-18)
(1.84346 0.674294 -3.04487e-18)
(-3.13556 0.898592 6.75872e-18)
(-2.56169 0.493533 1.02733e-20)
(41.1007 0.703285 -5.51721e-20)
(40.623 -0.861081 4.49056e-20)
(42.497 0.424916 -9.72054e-20)
(40.916 -0.913902 1.25692e-19)
(42.4353 0.202234 -1.54604e-19)
(41.2812 -0.943384 9.69483e-21)
(42.4436 -0.0141351 -1.23776e-19)
(41.7473 -0.946792 0)
(42.5093 -0.25186 -1.89333e-19)
(42.2873 -0.977393 2.43437e-19)
(42.6829 -0.45896 3.48544e-21)
(42.8141 -1.00401 -2.3944e-20)
(43.0506 -0.697578 2.6552e-19)
(43.3405 -1.02248 5.98531e-21)
(43.6235 -0.927476 3.81048e-19)
(43.9974 -1.08926 6.7653e-20)
(44.3887 -1.13836 0)
(44.8379 -1.22137 4.72657e-19)