/*--------------------------------*- C++ -*----------------------------------*\
| =========                 |                                                 |
| \\      /  F ield         | OpenFOAM: The Open Source CFD Toolbox           |
|  \\    /   O peration     | Version:  v1912                                 |
|   \\  /    A nd           | Website:  www.openfoam.com                      |
|    \\/     M anipulation  |                                                 |
\*---------------------------------------------------------------------------*/
FoamFile
{
    version     2.0;
    format      ascii;
    class       volScalarField;
    location    "0.01";
    object      p;
}
// * * * * * * * * * * * * * * * * * * * * * * * * * * * * * * * * * * * * * //

dimensions      [0 2 -2 0 0 0 0];


internalField   nonuniform List<scalar> 
6600
(
139.714
75.3299
96.2649
73.373
77.0137
69.8545
68.9009
68.4079
67.7148
67.5193
67.6364
67.6506
67.6039
67.6851
67.8652
68.0487
68.3455
68.7976
69.3479
69.9466
70.5024
70.9132
71.205
71.3698
71.3606
71.071
70.3659
69.1237
67.2433
64.6107
61.086
56.5344
50.7709
43.5242
34.4773
23.2445
9.40167
-7.43328
-27.7225
-52.1692
-81.5802
-116.886
-159.037
-208.83
-267.018
-334.562
-411.739
-497.56
-600.612
-716.071
121.253
58.5119
101.846
66.5869
81.2831
64.8039
68.6837
67.1372
66.2017
66.0899
65.8041
65.408
65.0242
64.68
64.3018
63.8568
63.4531
63.1448
62.8362
62.4959
62.0719
61.4976
60.7388
59.7509
58.4632
56.7929
54.6173
51.8284
48.2728
43.8039
38.2156
31.3136
22.8542
12.5155
-0.14107
-15.5588
-34.1963
-56.4336
-82.6408
-113.398
-149.401
-191.517
-240.879
-298.58
-365.214
-442.388
-529.864
-625.762
-737.053
-862.347
96.2496
44.5901
92.5863
48.1317
76.8836
54.6843
67.5382
62.5095
62.9669
63.0581
62.4326
61.9068
61.5299
61.1211
60.5879
60.0052
59.3909
58.6452
57.7037
56.5895
55.2454
53.5973
51.5861
49.121
46.1197
42.5447
38.2953
33.2736
27.3406
20.3575
12.1151
2.3828
-9.11581
-22.7234
-38.9337
-58.3162
-81.4287
-108.838
-141.065
-178.67
-222.183
-272.078
-329.399
-395.211
-469.75
-555.596
-652.407
-758.61
-875.805
-1004.06
80.6894
42.5379
81.8653
36.1355
74.8019
42.9576
66.1629
53.4895
57.5438
56.6205
55.4455
54.9472
54.3828
53.7587
53.0751
52.3927
51.6416
50.7118
49.6084
48.1805
46.347
44.0299
41.1635
37.7066
33.5083
28.4436
22.3889
15.2092
6.7417
-3.1795
-14.7737
-28.2738
-43.9235
-61.9555
-82.7178
-106.714
-134.505
-166.719
-204.313
-247.994
-298.496
-356.373
-422.168
-496.463
-579.809
-673.59
-778.206
-891.682
-1012
-1139.02
71.0677
46.0598
84.8951
35.3702
77.8375
38.3884
67.457
46.1725
55.4512
50.4868
49.4818
48.4001
47.0103
45.6443
44.2342
42.7426
41.0723
39.1913
37.1217
34.7362
31.9371
28.6503
24.7758
20.2582
14.9787
8.7785
1.53284
-6.96166
-16.9761
-28.8931
-43.0457
-59.7903
-79.4254
-102.145
-128.273
-158.113
-191.988
-230.098
-273.551
-322.922
-379.287
-443.547
-516.394
-598.446
-690.029
-791.709
-903.463
-1022.7
-1145.15
-1269.06
65.0495
46.9248
79.0046
35.7621
77.9184
35.1769
68.8828
39.8679
55.8272
45.04
46.8154
44.2478
42.0403
40.0453
37.8593
35.4307
32.6521
29.5015
25.8895
21.8167
17.2185
12.0216
6.13701
-0.53851
-8.06837
-16.5307
-25.9639
-36.6534
-48.7442
-62.768
-79.055
-98.0238
-120.142
-145.735
-175.619
-210.093
-249.586
-294.376
-344.682
-400.961
-463.851
-534.162
-612.611
-700.275
-797.807
-905.623
-1023.21
-1147.41
-1271.11
-1391.44
58.4379
45.2416
66.6881
31.8354
69.8505
29.8382
64.7623
31.8506
53.8875
36.664
43.0403
38.1468
36.5554
34.2
31.5031
28.5264
25.1495
21.2814
16.8454
11.7438
5.85759
-0.908397
-8.64371
-17.4688
-27.5109
-38.8892
-51.4716
-65.8891
-81.7744
-99.9806
-120.216
-142.821
-168.231
-197.02
-229.756
-267.141
-309.943
-358.927
-414.47
-476.869
-546.386
-623.235
-707.578
-800.083
-901.563
-1013.18
-1135.11
-1264.01
-1389.42
-1504.7
52.6607
40.9722
56.4164
29.4082
59.4842
24.6066
56.1489
24.4744
47.7974
27.249
36.8763
28.6451
28.5871
25.3505
22.2398
18.7532
14.7721
10.2827
5.22255
-0.543583
-7.1331
-14.6817
-23.3317
-33.2434
-44.6471
-57.8092
-71.9652
-89.2761
-108.824
-131.027
-155.963
-183.762
-214.559
-248.673
-286.419
-328.163
-374.604
-426.727
-485.413
-551.359
-625.164
-707.064
-796.859
-894.431
-999.901
-1114.34
-1238.83
-1370.36
-1496.33
-1604.45
46.638
37.1054
48.204
27.9486
50.5282
22.1155
47.3439
20.0717
40.07
20.3891
29.5418
19.5313
19.8185
15.2741
11.5308
7.24984
2.38361
-3.09485
-9.28658
-16.2335
-24.0055
-32.7269
-42.5372
-53.5857
-66.0214
-80.023
-95.8584
-114.193
-135.164
-159.191
-186.652
-217.852
-252.975
-292.243
-335.853
-383.814
-436.228
-493.488
-556.216
-625.174
-701.407
-785.785
-878.627
-979.75
-1088.74
-1206.1
-1332.97
-1466.75
-1592.53
-1691.15
40.6381
32.8727
41.0673
25.4075
42.3172
19.6849
39.3526
16.7019
32.3878
14.8157
22.7907
12.0696
12.2924
6.48303
2.1472
-3.07222
-8.97028
-15.5751
-23.0431
-31.4193
-40.7811
-51.212
-62.8293
-75.7692
-90.1543
-106.159
-124.053
-144.17
-166.742
-192.114
-220.732
-253.088
-289.677
-330.99
-377.503
-429.539
-487.197
-550.443
-619.201
-693.392
-773.432
-860.162
-954.506
-1057.1
-1167.84
-1286.91
-1414.91
-1549.23
-1673.95
-1762.33
34.5317
28.3028
34.4163
21.921
34.6598
16.1743
31.7531
12.3394
24.9293
9.23443
15.5611
5.04704
4.84102
-1.74865
-6.45123
-12.4121
-19.114
-26.6279
-35.0712
-44.551
-55.1889
-67.0773
-80.3411
-95.1484
-111.66
-130.079
-150.614
-173.46
-198.792
-226.835
-257.863
-292.215
-330.337
-372.75
-420.031
-472.841
-531.802
-597.372
-669.75
-748.67
-833.705
-924.64
-1021.67
-1125.47
-1236.68
-1356.08
-1484.14
-1617.78
-1740.98
-1818.4
28.471
23.6805
28.1192
18.0512
27.7151
12.2991
24.5451
7.63312
17.817
3.36994
8.33004
-2.05478
-2.8269
-10.0507
-15.1565
-21.7971
-29.1733
-37.4345
-46.6716
-57.0015
-68.5601
-81.4728
-95.8935
-112.009
-130.022
-150.171
-172.689
-197.785
-225.659
-256.521
-290.584
-328.033
-369.099
-414.072
-463.312
-517.317
-576.721
-642.23
-714.554
-794.151
-881.088
-975.084
-1075.57
-1182.16
-1294.78
-1414.05
-1540.22
-1671
-1791.09
-1857.59
22.6784
19.2749
22.1852
14.2693
21.3465
8.55677
17.9148
3.18671
11.2671
-2.17126
1.69295
-8.69124
-10.0296
-17.7884
-23.3865
-30.685
-38.7199
-47.6969
-57.7051
-68.8627
-81.2899
-95.1233
-110.529
-127.686
-146.797
-168.095
-191.829
-218.251
-247.625
-280.233
-316.356
-356.244
-400.088
-448.037
-500.225
-556.835
-618.168
-684.659
-756.909
-835.605
-921.384
-1014.73
-1115.61
-1223.45
-1337.49
-1457.4
-1582.76
-1710.37
-1824.98
-1881.27
17.3314
15.2766
16.6352
10.9181
15.3964
5.29777
11.8306
-0.612754
5.26363
-6.89894
-4.26964
-14.4043
-16.3567
-24.4235
-30.4905
-38.3036
-46.888
-56.4644
-67.1239
-78.9986
-92.2054
-106.882
-123.19
-141.299
-161.392
-183.68
-208.386
-235.747
-266.029
-299.531
-336.568
-377.481
-422.586
-472.151
-526.387
-585.408
-649.302
-718.134
-792.035
-871.285
-956.366
-1048.03
-1146.93
-1253.28
-1366.4
-1485.5
-1609.1
-1733.03
-1841.1
-1888.64
12.6011
11.8734
11.6035
8.29318
9.86682
2.81875
6.25598
-3.53283
-0.255959
-10.5319
-9.54298
-18.9265
-21.6491
-29.7267
-36.1959
-44.3266
-53.2722
-63.2468
-74.3411
-86.6915
-100.426
-115.689
-132.645
-151.457
-172.314
-195.408
-220.948
-249.153
-280.263
-314.53
-352.233
-393.67
-439.146
-488.97
-543.472
-602.964
-667.735
-737.958
-813.623
-894.568
-980.613
-1071.92
-1169.03
-1272.66
-1383.17
-1500.02
-1621.63
-1741.74
-1842.28
-1880.13
8.55511
9.31545
7.05959
6.40843
4.90795
1.234
1.20666
-5.41356
-5.01017
-12.9825
-13.9124
-22.1235
-25.7417
-33.5494
-40.3255
-48.5892
-57.6998
-67.8693
-79.1816
-91.7652
-105.754
-121.303
-138.575
-157.739
-178.979
-202.489
-228.467
-257.133
-288.723
-323.479
-361.651
-403.511
-449.319
-499.321
-553.76
-612.882
-677.034
-746.609
-821.94
-903.134
-989.942
-1081.99
-1179.1
-1281.51
-1389.53
-1502.88
-1620.17
-1734.95
-1827.71
-1856.04
5.28163
7.59375
2.69427
5.64475
0.327357
0.735443
-3.29191
-5.96197
-9.05378
-14.2368
-17.2003
-23.9559
-28.4919
-35.7735
-42.7346
-50.9447
-60.0408
-70.2021
-81.5143
-94.098
-108.088
-123.639
-140.921
-160.104
-181.373
-204.919
-230.954
-259.688
-291.35
-326.18
-364.427
-406.345
-452.172
-502.124
-556.407
-615.188
-678.665
-747.113
-820.897
-900.385
-985.737
-1076.83
-1173.27
-1274.71
-1381.2
-1492.33
-1605.92
-1714.81
-1798.51
-1819.38
2.83697
6.57605
-0.738874
5.66605
-3.6732
1.25507
-7.13267
-5.70779
-11.9704
-14.4626
-19.304
-24.4509
-29.8044
-36.4399
-43.3767
-51.3914
-60.3038
-70.2656
-81.3721
-93.7432
-107.51
-122.821
-139.839
-158.728
-179.665
-202.841
-228.465
-256.782
-288.024
-322.432
-360.282
-401.835
-447.339
-496.997
-550.965
-609.349
-672.251
-739.819
-812.254
-889.822
-972.756
-1061.26
-1155.4
-1254.85
-1359.02
-1466.98
-1575.93
-1678.12
-1753.06
-1771.48
1.42574
6.14368
-3.20535
6.15468
-6.68788
2.29327
-10.0089
-4.56247
-14.1193
-13.4377
-20.366
-23.7028
-29.6536
-35.6229
-42.3423
-50.0179
-58.5697
-68.1397
-78.8316
-90.7676
-104.079
-118.912
-135.423
-153.774
-174.142
-196.719
-221.71
-249.316
-279.785
-313.37
-350.321
-390.917
-435.454
-484.199
-537.355
-595.026
-657.218
-723.945
-795.285
-871.349
-952.2
-1037.87
-1128.49
-1224.24
-1324.85
-1429.44
-1533.73
-1627.97
-1691.16
-1709.2
0.705521
6.2903
-4.91573
6.89116
-8.63456
3.39394
-11.5966
-3.15381
-15.0288
-11.7867
-20.283
-21.9189
-28.3798
-33.5212
-39.9318
-47.147
-55.2095
-64.2425
-74.3517
-85.6577
-98.2897
-112.389
-128.105
-145.597
-165.046
-186.647
-210.626
-237.225
-266.659
-299.184
-335.056
-374.515
-417.818
-465.249
-517.073
-573.498
-634.585
-700.294
-770.584
-845.442
-924.814
-1008.59
-1096.73
-1189.05
-1285.14
-1384.01
-1480.8
-1565.19
-1615.88
-1632.09
0.574317
6.84975
-5.91651
7.75225
-9.59757
4.59847
-12.0458
-1.65657
-14.6553
-9.89955
-18.9398
-19.5248
-25.9508
-30.3984
-36.3769
-43.0056
-50.4631
-58.8346
-68.2233
-78.7507
-90.5505
-103.765
-118.54
-135.033
-153.418
-173.88
-196.599
-221.818
-249.83
-280.893
-315.268
-353.223
-395.043
-440.986
-491.28
-546.133
-605.69
-669.991
-739.007
-812.668
-890.797
-973.041
-1059.01
-1148.53
-1240.74
-1335.22
-1424.48
-1496.15
-1532.3
-1545.58
0.941341
7.69146
-6.37693
8.95965
-10.0487
5.91108
-11.6954
-0.0314951
-13.4415
-7.83459
-16.7315
-16.804
-22.7343
-26.7098
-32.125
-38.1067
-44.8737
-52.4824
-61.0266
-70.6201
-81.392
-93.4791
-107.032
-122.224
-139.248
-158.312
-179.638
-203.418
-229.891
-259.326
-291.982
-328.157
-368.174
-412.353
-460.981
-514.26
-572.306
-635.134
-702.72
-775.034
-851.981
-933.223
-1018.22
-1106.11
-1195.81
-1285.05
-1366.47
-1426.16
-1449.47
-1458.93
1.78556
8.90943
-6.37285
10.3633
-9.74967
7.44293
-10.7195
1.86737
-11.5956
-5.4661
-13.8914
-13.7604
-18.9573
-22.5744
-27.3548
-32.6725
-38.7213
-45.5504
-53.2476
-61.9187
-71.679
-82.6485
-94.9623
-108.778
-124.279
-141.67
-161.19
-183.126
-207.717
-235.216
-265.926
-300.132
-338.12
-380.227
-426.817
-478.217
-534.658
-596.169
-662.626
-733.852
-809.685
-889.868
-973.783
-1060.9
-1149.61
-1236.81
-1314.13
-1364.09
-1374.75
-1381.22
2.89736
10.3086
-6.14592
11.62
-9.09557
9.00722
-9.40823
3.81268
-9.358
-3.1601
-10.7666
-10.7383
-14.9922
-18.3139
-22.4098
-27.0315
-32.2955
-38.2599
-45.0065
-52.6353
-61.2593
-70.9988
-81.9945
-94.4101
-108.419
-124.215
-142.002
-161.993
-184.481
-209.764
-238.181
-270.087
-305.833
-345.756
-390.17
-439.43
-493.883
-553.798
-619.186
-689.842
-765.47
-845.737
-930.245
-1017.71
-1106.82
-1192.28
-1264.82
-1308.05
-1313.24
-1316.32
4.32871
12.0895
-5.55526
13.2891
-8.06824
10.5352
-7.76219
5.46974
-6.81077
-1.03414
-7.54799
-7.83862
-11.2125
-14.1805
-17.72
-21.7213
-26.2809
-31.4607
-37.3293
-43.96
-51.4421
-59.8881
-69.4338
-80.2453
-92.5064
-106.426
-122.264
-140.268
-160.64
-183.638
-209.587
-238.88
-271.955
-309.269
-351.235
-398.251
-450.696
-508.865
-572.954
-642.976
-718.741
-799.871
-885.636
-975.072
-1066.33
-1153.79
-1223.68
-1257.37
-1261.72
-1263.48
6.18331
14.7864
-4.58805
14.6269
-6.37016
11.6867
-5.47135
6.79978
-3.97
0.801803
-4.29298
-5.06137
-7.64165
-10.18
-13.1587
-16.534
-20.3892
-24.7913
-29.8073
-35.5025
-41.95
-49.2476
-57.5167
-66.891
-77.5258
-89.5948
-103.313
-119.004
-136.988
-157.55
-180.999
-207.679
-237.972
-272.329
-311.322
-355.546
-405.555
-461.792
-524.566
-594.033
-670.193
-752.953
-842.051
-935.735
-1031.03
-1119.41
-1186.69
-1212.78
-1215.39
-1218.67
6.41749
17.3813
-2.61484
15.4632
-3.82526
12.7998
-2.69233
7.56124
-1.63555
2.00548
-1.67087
-2.80727
-4.83012
-6.95864
-9.41528
-12.1982
-15.3664
-18.9795
-23.0965
-27.7751
-33.0934
-39.1509
-46.0724
-53.9989
-63.0676
-73.4342
-85.2521
-98.7139
-114.165
-131.993
-152.61
-176.408
-203.838
-235.306
-271.31
-312.462
-359.469
-413.102
-474.021
-542.645
-619.158
-703.668
-796.013
-895.436
-998.435
-1093.39
-1158.21
-1173.53
-1174.05
-1180.75
5.87729
19.1793
1.08112
16.6694
-0.142458
12.6625
0.00121441
7.39324
0.579972
2.56691
0.280859
-0.896855
-2.50384
-4.24462
-6.23496
-8.49745
-11.0728
-14.0079
-17.3534
-21.1565
-25.482
-30.412
-36.0439
-42.5088
-49.9537
-58.54
-68.456
-79.8629
-92.9736
-108.147
-125.81
-146.472
-170.561
-198.695
-231.423
-269.37
-313.253
-363.91
-422.322
-489.417
-565.828
-651.983
-748.887
-855.956
-968.183
-1070.71
-1137.33
-1144.59
-1138.61
-1150.71
-0.316014
17.1853
5.87474
15.4734
2.22745
11.413
1.82764
6.80978
2.3897
2.76235
1.49448
0.54456
-0.640027
-1.9626
-3.46926
-5.17892
-7.11909
-9.33747
-11.906
-14.8958
-18.3638
-22.3575
-26.9289
-32.1536
-38.1281
-44.9839
-52.9307
-62.2616
-73.1912
-86.0056
-101.002
-118.562
-139.264
-163.759
-192.715
-226.912
-267.203
-314.574
-370.1
-435.035
-510.653
-597.78
-697.333
-812.317
-939.151
-1058.81
-1127.12
-1121.59
-1110.5
-1129.9
-1.47298
21.6463
12.6105
15.2275
6.35363
11.7492
5.19737
6.95606
4.52171
3.89885
2.90294
2.0903
1.15
0.113877
-1.00556
-2.24823
-3.63622
-5.22027
-7.10364
-9.36541
-12.0323
-15.1139
-18.6357
-22.6671
-27.3566
-32.811
-39.1239
-46.5048
-55.2182
-65.5758
-77.9465
-92.693
-110.456
-131.682
-157.008
-187.21
-223.353
-266.755
-318.761
-380.929
-455.097
-542.693
-644.825
-765.112
-903.666
-1041.85
-1124.52
-1113.09
-1093.92
-1120.35
141.646
77.4158
96.754
73.4093
76.8994
70.5018
69.2278
68.7451
68.0493
67.7936
67.8603
67.8337
67.7705
67.8556
68.0547
68.3294
68.7595
69.3689
70.1017
70.885
71.6132
72.2212
72.7543
73.1985
73.4892
73.5615
73.3269
72.7192
71.649
70.0044
67.6525
64.4563
60.2346
54.7138
47.594
38.561
27.2932
13.4513
-3.37956
-23.8697
-48.7649
-78.859
-115.097
-158.3
-209.23
-268.667
-336.799
-412.634
-505.879
-606.019
123.812
61.2953
100.927
65.5994
81.3961
65.8273
68.8417
67.5997
66.5316
66.2775
65.9542
65.5207
65.1438
64.8145
64.4707
64.137
63.8618
63.7042
63.5654
63.4022
63.1716
62.8115
62.2991
61.6022
60.6573
59.4011
57.7512
55.6413
52.9295
49.4414
44.9924
39.379
32.3593
23.6424
12.8752
-0.320119
-16.3556
-35.5983
-58.3791
-85.2075
-116.773
-153.831
-197.381
-248.513
-308.061
-377.076
-455.705
-541.815
-643.539
-753.648
98.1353
45.4982
92.6565
47.006
78.1805
55.5858
67.5566
63.1951
63.1543
63.1801
62.5373
61.9681
61.5996
61.2198
60.768
60.3062
59.8206
59.2327
58.4601
57.5323
56.3967
54.986
53.254
51.1297
48.5361
45.4523
41.8072
37.5166
32.4475
26.4296
19.2756
10.7826
0.684692
-11.3413
-25.6967
-42.8383
-63.3017
-87.6855
-116.513
-150.209
-189.295
-234.303
-285.988
-345.309
-413.197
-490.836
-579.068
-675.774
-784.369
-901.729
81.9365
42.9628
82.2303
36.075
76.0418
43.1865
66.3039
54.2485
57.3922
56.7541
55.4556
54.8933
54.397
53.8472
53.2782
52.7333
52.1391
51.382
50.4642
49.2347
47.6212
45.5608
43.0061
39.9246
36.1833
31.6551
26.2419
19.8066
12.1847
3.21247
-7.30239
-19.5613
-33.7711
-50.1364
-68.977
-90.708
-115.858
-145.138
-179.329
-219.159
-265.256
-318.281
-378.701
-446.825
-523.58
-609.916
-706.396
-811.099
-923.81
-1043.67
72.004
46.3115
85.6598
35.5178
79.2729
38.2222
68.0873
46.6138
55.0224
50.6555
49.1918
48.2077
46.985
45.7167
44.4584
43.1193
41.6147
39.9119
38.0431
35.8799
33.3321
30.3374
26.8148
22.7033
17.9073
12.2712
5.66701
-2.11669
-11.3515
-22.3316
-35.3541
-50.7573
-68.8447
-89.8319
-113.933
-141.422
-172.607
-207.948
-248.156
-293.892
-345.826
-405.312
-473.044
-549.428
-634.692
-729.623
-834.258
-946.111
-1062.21
-1180.43
65.8369
47.1722
80.2808
35.8544
79.8006
34.6198
70.1743
39.5404
55.6032
44.8945
46.1575
44.1638
41.9507
40.1164
38.1238
35.8469
33.2234
30.246
26.8323
22.9913
18.6702
13.8024
8.30196
2.06658
-4.96902
-12.8676
-21.7151
-31.6979
-43.0389
-56.0817
-71.1827
-88.7499
-109.19
-133.068
-160.864
-192.98
-229.731
-271.638
-318.882
-371.743
-430.685
-496.451
-570.129
-652.639
-744.473
-846.309
-957.797
-1075.88
-1194.62
-1309.99
59.1432
45.5936
68.4556
31.9566
72.243
29.0897
66.896
29.956
53.9503
35.3386
42.5469
38.1574
36.3629
34.3758
31.8394
29.0035
25.7872
22.0919
17.8434
12.9647
7.35951
0.932956
-6.41345
-14.7927
-24.3285
-35.1341
-47.3252
-60.9922
-76.2318
-93.2327
-112.226
-133.494
-157.272
-184.214
-214.889
-249.998
-290.326
-336.49
-388.849
-447.882
-513.812
-586.674
-666.776
-754.807
-851.466
-957.948
-1074.7
-1198.43
-1320.48
-1432.53
53.5641
41.5429
58.696
30.3261
61.7833
24.0858
58.7853
19.9969
48.2186
24.2771
37.8112
27.862
28.7551
25.6708
22.6544
19.3179
15.4794
11.1638
6.28312
0.739645
-5.57565
-12.79
-21.0469
-30.5169
-41.3891
-53.8806
-68.1888
-84.5036
-103.048
-124.263
-148.019
-174.485
-203.831
-236.228
-271.94
-311.483
-355.632
-405.236
-460.933
-523.66
-594.121
-672.466
-758.536
-852.351
-954.01
-1064.35
-1184.43
-1311.6
-1435.68
-1542.87
47.5744
37.7274
49.8798
27.815
52.6611
20.4663
49.4208
16.3923
42.2813
16.551
32.5343
17.3029
21.328
14.9253
12.2421
7.92226
3.09018
-2.25065
-8.24684
-14.9529
-22.4502
-30.844
-40.2752
-50.899
-62.8721
-76.3922
-91.6753
-109.256
-129.408
-152.545
-178.944
-208.866
-242.582
-280.304
-322.094
-368.024
-418.297
-473.306
-533.494
-599.677
-672.958
-754.227
-843.822
-941.713
-1047.54
-1161.71
-1285.25
-1415.64
-1540.54
-1639.6
41.4194
33.3693
42.0656
25.3197
43.5528
18.0938
40.9514
13.8129
34.7676
11.7608
25.5073
9.95046
14.1023
5.80385
3.35176
-2.73527
-8.22756
-14.7729
-22.0635
-30.1996
-39.2781
-49.3972
-60.662
-73.2012
-87.1371
-102.627
-119.925
-139.357
-161.152
-185.659
-213.324
-244.576
-279.887
-319.791
-364.736
-415.017
-470.744
-531.973
-598.592
-670.513
-748.14
-832.323
-924.001
-1023.92
-1132.1
-1248.6
-1374.07
-1505.95
-1630.57
-1720.06
35.0856
28.6226
34.917
21.9662
35.2234
15.4397
32.484
10.8784
26.2681
7.41468
17.3712
3.54954
6.26134
-2.27586
-5.59129
-12.0558
-18.4617
-25.8277
-34.1068
-43.39
-53.7889
-65.4082
-78.3627
-92.7916
-108.865
-126.767
-146.713
-168.923
-193.551
-220.782
-250.929
-284.331
-321.391
-362.598
-408.545
-459.897
-517.239
-581.078
-651.65
-728.711
-811.867
-900.875
-995.892
-1097.63
-1206.8
-1324.21
-1450.58
-1583.09
-1706.57
-1786.12
28.8105
23.8586
28.2845
18.207
27.8585
12.0883
24.801
7.02017
18.4683
2.39
9.45499
-3.10119
-1.69207
-10.5553
-14.3722
-21.5503
-28.6208
-36.6836
-45.7369
-55.9021
-67.2781
-79.9835
-94.1485
-109.931
-127.552
-147.245
-169.23
-193.727
-220.959
-251.119
-284.414
-321.04
-361.223
-405.213
-453.366
-506.202
-564.338
-628.493
-699.395
-777.51
-862.983
-955.552
-1054.63
-1159.84
-1271.16
-1389.17
-1514.32
-1644.44
-1765.74
-1835.52
22.8646
19.3651
22.1321
14.5223
21.2018
8.71921
17.8134
3.14141
11.3936
-2.52131
2.20822
-9.30894
-9.19269
-18.2596
-22.6287
-30.5437
-38.2331
-47.0461
-56.8942
-67.9029
-80.1733
-93.8333
-109.035
-125.941
-144.752
-165.695
-189
-214.92
-243.742
-275.761
-311.252
-350.455
-393.56
-440.711
-492.039
-547.746
-608.135
-673.652
-744.905
-822.572
-907.337
-999.687
-1099.62
-1206.59
-1319.87
-1439.21
-1564.31
-1692.32
-1809.77
-1870.05
17.4365
15.305
16.4745
11.2115
15.0542
5.71195
11.4127
-0.297908
4.9921
-6.84499
-4.15753
-14.7148
-15.7651
-24.8653
-29.7762
-38.2998
-46.4729
-55.9457
-66.5019
-78.2496
-91.3153
-105.843
-121.989
-139.921
-159.807
-181.84
-206.232
-233.229
-263.103
-296.15
-332.695
-373.082
-417.629
-466.61
-520.226
-578.604
-641.83
-709.986
-783.234
-861.853
-946.375
-1037.52
-1135.96
-1241.97
-1354.94
-1474.13
-1598.04
-1723.11
-1835.64
-1887.71
12.6885
11.8407
11.473
8.4867
9.40315
3.38872
5.53909
-2.934
-0.758259
-10.2442
-9.62965
-19.0933
-21.188
-30.173
-35.5502
-44.4723
-52.9688
-62.8919
-73.9259
-86.1799
-99.8031
-114.95
-131.779
-150.462
-171.172
-194.092
-219.425
-247.392
-278.234
-312.204
-349.572
-390.647
-435.748
-485.205
-539.351
-598.494
-662.911
-732.778
-808.127
-888.801
-974.682
-1065.94
-1163.07
-1266.84
-1377.67
-1495.13
-1617.65
-1739.7
-1845.41
-1889.55
8.66178
9.17449
7.01795
6.42819
4.36268
1.95194
0.218103
-4.49177
-5.83509
-12.4376
-14.2616
-22.1114
-25.4626
-33.9284
-39.8265
-48.8505
-57.5237
-67.7107
-78.9791
-91.4978
-105.415
-120.886
-138.071
-157.149
-178.299
-201.708
-227.574
-256.114
-287.562
-322.157
-360.164
-401.852
-447.492
-497.342
-551.645
-610.671
-674.764
-744.303
-819.663
-900.967
-988.004
-1080.43
-1178.04
-1281.13
-1390.04
-1504.74
-1623.63
-1740.93
-1839.48
-1874.39
5.33429
7.38523
2.76072
5.59241
-0.288972
1.35409
-4.33837
-5.13467
-9.89761
-13.5923
-17.7581
-23.7012
-28.4828
-35.9259
-42.505
-51.2619
-60.0028
-70.2516
-81.5185
-94.0775
-108.033
-123.553
-140.807
-159.966
-181.214
-204.745
-230.772
-259.495
-291.142
-325.959
-364.186
-406.086
-451.916
-501.911
-556.279
-615.193
-678.856
-747.546
-821.652
-901.576
-987.521
-1079.42
-1176.88
-1279.53
-1387.47
-1500.4
-1616.62
-1729.04
-1818.55
-1845.26
2.96318
6.34729
-0.650211
5.51583
-4.1469
1.60844
-8.05346
-4.8707
-13.1022
-13.5316
-20.2061
-23.9287
-30.1631
-36.3794
-43.3099
-51.8637
-60.3856
-70.4915
-81.5772
-93.9672
-107.716
-123.04
-140.112
-159.064
-180.073
-203.332
-229.053
-257.477
-288.84
-323.386
-361.384
-403.088
-448.754
-498.593
-552.782
-611.456
-674.738
-742.778
-815.789
-894.069
-977.896
-1067.52
-1163.07
-1264.33
-1370.67
-1481.21
-1593.91
-1701.24
-1783.19
-1804.53
1.47001
6.0732
-3.25758
6.17957
-7.15776
2.53814
-10.8647
-3.88718
-15.2375
-12.5466
-21.4418
-23.0199
-30.3851
-35.376
-42.642
-50.3069
-58.8554
-68.5261
-79.2317
-91.2559
-104.512
-119.36
-136.052
-154.568
-175.103
-197.844
-223.005
-250.819
-281.528
-315.373
-352.613
-393.524
-438.397
-487.502
-541.049
-599.159
-661.88
-729.248
-801.348
-878.326
-960.301
-1047.39
-1139.74
-1237.63
-1341.12
-1449.16
-1558.38
-1659.92
-1733.13
-1753.21
0.714285
6.30828
-5.09573
7.11658
-9.31877
3.76788
-12.5733
-2.50664
-16.1901
-10.9806
-21.4114
-21.2917
-29.1835
-33.2988
-40.3892
-47.4259
-55.5832
-64.6864
-74.8577
-86.2499
-98.9654
-113.185
-129.092
-146.812
-166.505
-188.341
-212.507
-239.388
-269.158
-302.057
-338.359
-378.285
-422.08
-470.035
-522.414
-579.432
-641.185
-707.684
-778.893
-854.816
-935.446
-1020.74
-1110.75
-1205.53
-1304.98
-1407.92
-1510.79
-1604.23
-1666.77
-1687.34
0.545013
6.96261
-6.28399
8.27881
-10.5821
4.96499
-13.0139
-0.968037
-15.8119
-9.25558
-19.917
-19.1264
-26.6483
-30.3252
-36.9085
-43.3202
-50.9085
-59.3573
-68.8507
-79.4911
-91.4336
-104.818
-119.802
-136.562
-155.282
-176.173
-198.937
-224.537
-252.928
-284.312
-319.292
-357.924
-400.422
-447.051
-498.06
-553.671
-614.028
-679.193
-749.179
-823.959
-903.416
-987.264
-1075.18
-1167.12
-1262.76
-1361.49
-1457.7
-1540.25
-1588.75
-1607.54
0.877416
7.85025
-6.73887
9.46188
-10.9976
6.33492
-12.6698
0.429179
-14.2001
-7.61051
-17.3001
-16.746
-23.2344
-26.804
-32.5848
-38.4703
-45.3517
-53.0596
-61.7493
-71.5019
-82.4579
-94.7525
-108.536
-124.012
-141.374
-160.81
-182.461
-206.63
-233.527
-263.433
-296.696
-333.58
-374.373
-419.38
-468.873
-523.062
-582.056
-645.872
-714.481
-787.874
-866.032
-948.728
-1035.48
-1125.58
-1218.24
-1311.52
-1399.62
-1470.15
-1505.45
-1520.65
1.71449
8.88752
-6.56874
10.7563
-10.4103
7.59653
-11.2492
1.88893
-11.9197
-5.58393
-14.2604
-13.8304
-19.4138
-22.758
-27.7475
-33.0571
-39.2013
-46.1417
-53.9972
-62.8556
-72.826
-84.0298
-96.6161
-110.749
-126.606
-144.388
-164.301
-186.663
-211.75
-239.837
-271.232
-306.178
-344.98
-387.967
-435.489
-487.869
-545.335
-607.934
-675.512
-747.858
-824.804
-906.167
-991.489
-1080.17
-1170.91
-1261.82
-1344.67
-1403.62
-1425.27
-1436.41
2.84894
10.3685
-6.41419
11.8093
-9.37064
8.89184
-9.59496
3.56855
-9.52268
-3.32815
-11.1457
-10.7491
-15.4594
-18.5549
-22.8133
-27.4621
-32.8068
-38.8735
-45.761
-53.57
-62.4071
-72.3953
-83.694
-96.4542
-110.841
-127.061
-145.3
-165.772
-188.799
-214.71
-243.854
-276.601
-313.264
-354.138
-399.556
-449.848
-505.351
-566.308
-632.762
-704.501
-781.153
-862.288
-947.554
-1036.09
-1126.41
-1214.95
-1292.94
-1344.28
-1354.3
-1362.18
4.30764
12.1785
-5.72448
13.3123
-8.08566
10.3152
-7.81022
5.1734
-6.97733
-1.0946
-7.95438
-7.78925
-11.5855
-14.4674
-18.1171
-22.172
-26.8122
-32.0737
-38.0518
-44.8379
-52.5232
-61.2223
-71.0835
-82.2545
-94.9121
-109.285
-125.63
-144.185
-165.158
-188.83
-215.551
-245.736
-279.797
-318.162
-361.237
-409.389
-462.946
-522.173
-587.248
-658.173
-734.73
-816.424
-902.425
-992.166
-1083.41
-1172.54
-1248.43
-1291.84
-1297.05
-1301.12
6.20506
14.8531
-4.59951
14.5335
-6.24298
11.4568
-5.47305
6.55425
-4.18637
0.814122
-4.70409
-5.06984
-7.91879
-10.4638
-13.5406
-16.9889
-20.9206
-25.3903
-30.4949
-36.3195
-42.9446
-50.4756
-59.0406
-68.7619
-79.7935
-92.3356
-106.605
-122.913
-141.593
-162.918
-187.207
-214.795
-246.087
-281.57
-321.763
-367.213
-418.431
-475.835
-539.657
-609.957
-686.675
-769.604
-858.31
-951.029
-1045.43
-1134.59
-1207.35
-1243.43
-1248.59
-1251.61
6.49377
17.421
-2.49377
15.2946
-3.66772
12.6045
-2.66171
7.46657
-1.91632
2.02028
-2.01428
-2.94123
-5.08014
-7.24416
-9.78779
-12.6526
-15.8972
-19.58
-23.7817
-28.5732
-34.0442
-40.2976
-47.4582
-55.6771
-65.1078
-75.9304
-88.3133
-102.443
-118.671
-137.355
-158.873
-183.651
-212.133
-244.753
-282.001
-324.468
-372.811
-427.729
-489.811
-559.343
-636.342
-720.735
-812.188
-909.841
-1009.99
-1104.3
-1174.88
-1200.68
-1203.91
-1208.95
6.00933
19.1822
1.29669
16.5236
-0.0154043
12.5824
-0.0073175
7.40136
0.282613
2.5281
-0.00868389
-1.09124
-2.74081
-4.51546
-6.57865
-8.92649
-11.5928
-14.6201
-18.0611
-21.9729
-26.4315
-31.5202
-37.3404
-44.0446
-51.8081
-60.8094
-71.2629
-83.34
-97.2569
-113.361
-131.983
-153.619
-178.81
-208.164
-242.24
-281.622
-326.982
-379.096
-438.848
-507.022
-584.045
-670.055
-765.622
-869.864
-977.856
-1077.55
-1148.1
-1165.41
-1164.22
-1173.13
-0.103808
17.1714
6.07499
15.4001
2.31361
11.3934
1.72646
6.90116
2.18649
2.70417
1.2937
0.354541
-0.852656
-2.20075
-3.7615
-5.54777
-7.58545
-9.91532
-12.5976
-15.7044
-19.3022
-23.4439
-28.1967
-33.6551
-39.9318
-47.169
-55.6012
-65.5438
-77.1936
-90.7985
-106.743
-125.427
-147.362
-173.19
-203.608
-239.361
-281.296
-330.307
-387.387
-453.634
-530.055
-617.215
-715.647
-827.332
-948.23
-1061.95
-1132.38
-1136.11
-1130.11
-1145.5
-1.30579
21.6761
12.6589
15.3177
6.34098
11.8348
5.05414
7.04199
4.40922
3.81595
2.74669
1.91695
0.958017
-0.100995
-1.25625
-2.55634
-4.02927
-5.71966
-7.71685
-10.097
-12.899
-16.1422
-19.8675
-24.1562
-29.1569
-34.9864
-41.7553
-49.6846
-59.0278
-70.1177
-83.4554
-99.3996
-118.424
-141.039
-167.918
-199.84
-237.811
-283.05
-336.858
-400.678
-476.028
-563.99
-665.323
-782.369
-915.03
-1045.74
-1125.08
-1118.36
-1104.81
-1128.8
4.22575
5.30564
14.6693
11.6486
9.3597
10.2233
7.33387
7.53017
5.98874
5.38544
4.55286
3.85034
2.98377
2.09184
1.18053
0.159371
-0.972499
-2.20998
-3.60699
-5.2516
-7.26165
-9.70572
-12.5983
-15.9264
-19.8349
-24.5713
-30.1349
-36.5626
-44.1109
-53.0917
-63.9247
-77.1225
-93.1799
-112.714
-136.449
-165.027
-199.302
-240.599
-290.502
-350.944
-424.235
-512.46
-615.826
-735.047
-885.31
-1037.16
-1133.83
-1127.52
-1097.08
-1123.26
11.7136
4.1791
9.80774
7.16023
7.68322
6.84406
6.45542
5.76666
5.40719
5.27093
4.65957
4.24795
3.7829
3.44561
2.91241
2.19342
1.3796
0.487798
-0.523256
-1.65996
-3.01583
-4.65809
-6.58447
-8.90667
-11.6884
-15.1459
-19.4529
-24.6441
-30.9351
-38.5245
-47.6789
-58.8282
-72.3646
-88.9428
-109.605
-135.248
-166.697
-205.216
-252.315
-309.962
-380.977
-468.375
-573.858
-704.655
-862.256
-1021.7
-1132.89
-1139.78
-1094.72
-1114.18
6.90921
8.29785
10.2703
8.82618
8.71379
7.6221
6.7106
6.06003
5.42685
5.15903
4.83112
4.73301
4.46618
4.23199
4.01667
3.83714
3.41053
2.88553
2.26345
1.41383
0.46468
-0.60197
-1.84053
-3.37506
-5.22418
-7.38363
-10.1454
-13.716
-18.355
-24.3265
-31.9313
-41.6302
-53.7054
-68.4425
-86.7448
-109.73
-138.331
-174.135
-219.035
-274.908
-344.195
-430.26
-538.088
-673.183
-827.927
-984.815
-1097.85
-1117.66
-1065.77
-1076.96
5.99111
7.22858
7.83637
8.22992
8.79918
8.82732
8.72003
8.21855
7.67951
7.43457
7.28708
7.34084
7.2987
7.20061
7.02793
6.90516
6.83325
6.76919
6.73971
6.54579
6.19678
5.6849
4.87024
3.81767
2.4868
0.918466
-0.868163
-3.06909
-6.00143
-9.96793
-15.2898
-22.6016
-32.5288
-45.3873
-61.8853
-83.1263
-109.708
-142.877
-185.004
-238.48
-305.74
-389.964
-495.61
-624.79
-768.718
-910.13
-1008.61
-1028.68
-980.943
-995.435
5.46621
6.32887
6.75921
6.80127
7.04316
7.47054
7.85316
8.12943
8.41862
8.99961
9.60314
10.1839
10.5734
10.8429
11.0667
11.3182
11.8087
12.4313
13.1236
13.8799
14.6211
15.2364
15.5799
15.7221
15.5467
14.9258
13.8623
12.3649
10.317
7.49098
3.71535
-1.46506
-8.7679
-18.7236
-32.1163
-50.4807
-74.7625
-105.541
-144.87
-195.316
-259.151
-338.859
-437.162
-553.096
-676.531
-791.838
-868.095
-881.396
-857.823
-868.108
7.59437
7.67675
7.20397
7.29005
7.43672
7.50625
7.75609
8.26693
8.93976
9.51939
10.224
11.0076
11.7677
12.5437
13.3503
14.5542
15.9714
17.466
19.0756
20.7307
22.5393
24.4842
26.4342
28.4718
30.4567
32.157
33.4033
33.9934
33.8037
32.6581
30.3985
26.7261
21.0995
13.1003
2.37866
-12.3983
-32.8862
-59.8299
-94.8951
-140.865
-199.764
-272.673
-359.81
-457.834
-556.654
-642.935
-698.411
-708.466
-705.266
-712.341
8.38392
8.75264
8.73113
8.86172
9.15095
9.58951
10.0521
10.5345
11.1884
11.9848
12.8507
13.8652
14.9225
16.0906
17.4036
18.8713
20.5482
22.4029
24.5871
27.1076
29.8374
32.7971
35.9401
39.3224
43.0061
46.828
50.676
54.3316
57.5149
59.9137
61.1737
60.8978
58.4971
53.352
45.1378
33.1787
16.0434
-7.14218
-37.2988
-76.9214
-128.416
-192.285
-266.687
-346.701
-423.484
-486.497
-522.877
-533.108
-540.343
-548.071
9.11262
9.76554
9.99203
10.2727
10.7451
11.3847
12.1848
13.016
13.9794
15.1512
16.426
17.8333
19.3569
21.061
22.9802
25.1503
27.6337
30.4025
33.3177
36.4622
39.9364
43.7637
48.0208
52.597
57.4015
62.4686
67.7812
73.2806
78.8455
84.2273
89.0499
92.8684
95.0923