/*--------------------------------*- C++ -*----------------------------------*\
| =========                 |                                                 |
| \\      /  F ield         | OpenFOAM: The Open Source CFD Toolbox           |
|  \\    /   O peration     | Version:  v1912                                 |
|   \\  /    A nd           | Website:  www.openfoam.com                      |
|    \\/     M anipulation  |                                                 |
\*---------------------------------------------------------------------------*/
FoamFile
{
    version     2.0;
    format      ascii;
    class       surfaceScalarField;
    location    "0.01";
    object      phi;
}
// * * * * * * * * * * * * * * * * * * * * * * * * * * * * * * * * * * * * * //

dimensions      [0 3 -1 0 0 0 0];
oriented        oriented;


internalField   nonuniform List<scalar> 
13060
(
0.0295893
0.928838
-0.958427
0.0106921
0.971703
-0.952806
0.010119
0.891874
-0.8913
0.00099216
0.875705
-0.866578
0.00161642
0.819874
-0.820498
0.00280185
0.784213
-0.785398
0.00621747
0.743389
-0.746805
0.00967122
0.705045
-0.708499
0.0124775
0.66976
-0.672566
0.0149061
0.635896
-0.638325
0.0169314
0.603821
-0.605847
0.0186347
0.573455
-0.575158
0.020088
0.544609
-0.546062
0.0213923
0.517323
-0.518627
0.0226803
0.491229
-0.492517
0.0239093
0.466333
-0.467562
0.0249648
0.442766
-0.443821
0.0257836
0.420601
-0.42142
0.0264028
0.399722
-0.400342
0.0268624
0.37998
-0.38044
0.0271667
0.361274
-0.361579
0.0272966
0.343555
-0.343685
0.0272419
0.32677
-0.326716
0.0270051
0.310887
-0.31065
0.0265971
0.295859
-0.295451
0.02609
0.281634
-0.281127
0.0255104
0.268217
-0.267637
0.0248729
0.255582
-0.254945
0.024209
0.243731
-0.243067
0.0234741
0.23269
-0.231955
0.0226317
0.222369
-0.221526
0.0216627
0.212689
-0.21172
0.0205336
0.203582
-0.202453
0.0193167
0.194968
-0.193752
0.0180195
0.186829
-0.185531
0.0167326
0.179148
-0.177861
0.0154405
0.17197
-0.170678
0.0141608
0.165301
-0.164021
0.0128252
0.159076
-0.15774
0.0114245
0.153251
-0.151851
0.00993238
0.147731
-0.146239
0.00835928
0.142482
-0.140909
0.00674226
0.13739
-0.135773
0.00516993
0.132583
-0.13101
0.00367957
0.127958
-0.126467
0.00229487
0.123696
-0.122312
0.000897321
0.119044
-0.117646
-0.000552619
0.115558
-0.114108
-0.00113086
0.107485
-0.106907
0.0785174
-0.0796482
-0.00357783
0.932416
-0.000654218
0.96878
0.00240468
0.888815
0.00145024
0.876659
0.00684117
0.814483
0.00761966
0.783434
0.0109858
0.740023
0.0126104
0.703421
0.0137324
0.668638
0.0150446
0.634584
0.0162696
0.602596
0.0174163
0.572308
0.0184464
0.543579
0.0194337
0.516335
0.0203462
0.490316
0.021089
0.465591
0.021599
0.442255
0.0219382
0.420262
0.022195
0.399466
0.0224034
0.379772
0.0225595
0.361118
0.0226409
0.343474
0.0226199
0.326791
0.0224707
0.311036
0.0221725
0.296157
0.021721
0.282086
0.0211329
0.268805
0.0204506
0.256264
0.0197025
0.244479
0.0189465
0.233446
0.0181594
0.223156
0.0172931
0.213555
0.0162819
0.204594
0.0151141
0.196136
0.0138282
0.188115
0.0124948
0.180482
0.0111727
0.173292
0.00989278
0.16658
0.00863715
0.160332
0.00740447
0.154484
0.00618685
0.148949
0.00498647
0.143682
0.00378947
0.138587
0.00260997
0.133762
0.00154675
0.129021
0.0005508
0.124692
-0.000474005
0.120069
-0.00138652
0.116471
-0.00164136
0.10774
0.076876
-0.0328733
0.965289
-0.0149382
0.950845
-0.00834561
0.882222
-0.00120878
0.869522
0.00547435
0.8078
0.00717155
0.781737
0.0117894
0.735405
0.0127614
0.702449
0.0147519
0.666648
0.0162031
0.633133
0.0170162
0.601783
0.0176739
0.57165
0.0182283
0.543024
0.0187535
0.51581
0.0192014
0.489868
0.0194592
0.465333
0.0195395
0.442175
0.0195091
0.420293
0.0194194
0.399555
0.0192942
0.379897
0.0191217
0.361291
0.0189027
0.343693
0.0186081
0.327086
0.0182519
0.311393
0.0178045
0.296604
0.0172435
0.282647
0.0165719
0.269476
0.0158259
0.25701
0.0150075
0.245297
0.0141816
0.234272
0.0133909
0.223946
0.0126267
0.214319
0.0118234
0.205397
0.0109012
0.197058
0.00983978
0.189176
0.00867429
0.181647
0.00747907
0.174488
0.00632028
0.167739
0.00520584
0.161446
0.0041218
0.155568
0.00303365
0.150037
0.00201667
0.144699
0.00103242
0.139571
0.000131655
0.134663
-0.000812837
0.129965
-0.00169451
0.125574
-0.00249568
0.12087
-0.00269956
0.116675
-0.00226228
0.107303
0.0746137
-0.0321718
0.997461
-0.00555585
0.924229
-0.0103205
0.886987
-0.00235759
0.86156
0.00179147
0.803651
0.0045084
0.77902
0.00754769
0.732366
0.00846101
0.701536
0.0109834
0.664125
0.0123588
0.631757
0.0135096
0.600633
0.0146841
0.570476
0.0155473
0.542161
0.0162237
0.515134
0.0166444
0.489448
0.0168202
0.465157
0.0168291
0.442166
0.0167501
0.420372
0.0166113
0.399694
0.0164173
0.380091
0.0161885
0.361519
0.0159039
0.343978
0.0155409
0.327449
0.01509
0.311844
0.0145364
0.297158
0.0138742
0.283309
0.0130863
0.270264
0.0121579
0.257939
0.0111338
0.246321
0.0100662
0.23534
0.00904342
0.224969
0.00811116
0.215252
0.00726061
0.206247
0.00642532
0.197894
0.0055453
0.190056
0.00457924
0.182613
0.00354503
0.175522
0.00252527
0.168759
0.00156776
0.162403
0.000683381
0.156452
-0.000120157
0.150841
-0.000948744
0.145528
-0.00169809
0.140321
-0.00232081
0.135286
-0.00276436
0.130409
-0.00308066
0.12589
-0.00339418
0.121184
-0.00325828
0.116539
-0.00250357
0.106548
0.0721102
-0.0160633
1.01352
0.00452471
0.903641
-0.00763611
0.899147
0.00137969
0.852544
-0.000536719
0.805567
0.0031466
0.775337
0.00549006
0.730023
0.00628091
0.700745
0.00874081
0.661665
0.00932013
0.631178
0.0104409
0.599512
0.0113734
0.569543
0.0119699
0.541565
0.0124313
0.514672
0.0126852
0.489194
0.0127444
0.465098
0.0126685
0.442242
0.0125108
0.420529
0.0122973
0.399908
0.0120513
0.380337
0.0117703
0.3618
0.0114688
0.344279
0.0111573
0.32776
0.0108136
0.312187
0.010437
0.297535
0.00997272
0.283773
0.00939258
0.270844
0.00865085
0.258681
0.00775916
0.247213
0.00673869
0.23636
0.00565938
0.226048
0.00458989
0.216321
0.00359897
0.207238
0.00268285
0.19881
0.00183419
0.190905
0.000997728
0.18345
0.000189666
0.17633
-0.000609752
0.169558
-0.00137701
0.163171
-0.00210038
0.157176
-0.00279831
0.151539
-0.00343018
0.14616
-0.00403009
0.14092
-0.00453836
0.135794
-0.00488973
0.13076
-0.00501293
0.126013
-0.00502414
0.121195
-0.00455067
0.116065
-0.00312421
0.105122
0.068986
-0.00578931
1.01931
0.00354592
0.894305
-0.00627775
0.908971
0.00323563
0.84303
-0.000464398
0.809267
0.00305917
0.771813
0.0036674
0.729415
0.00494718
0.699465
0.00672297
0.65989
0.0070182
0.630883
0.00842261
0.598107
0.00892151
0.569044
0.00944355
0.541043
0.00988694
0.514229
0.0100819
0.488999
0.0101014
0.465078
0.00996386
0.44238
0.00966466
0.420828
0.00922763
0.400345
0.00867056
0.380894
0.00802753
0.362443
0.00734705
0.344959
0.00668257
0.328425
0.0060594
0.31281
0.0054902
0.298104
0.00495843
0.284305
0.0044391
0.271364
0.0039077
0.259212
0.00334599
0.247775
0.002704
0.237002
0.00196863
0.226784
0.00116639
0.217123
0.000344059
0.208061
-0.000488506
0.199642
-0.00139592
0.191812
-0.00233473
0.184388
-0.00328269
0.177278
-0.00416799
0.170444
-0.00487996
0.163883
-0.00540283
0.157699
-0.00574789
0.151884
-0.00597601
0.146388
-0.00612058
0.141065
-0.00617426
0.135848
-0.00609727
0.130683
-0.00586174
0.125778
-0.00560857
0.120942
-0.00493498
0.115392
-0.00341165
0.103598
0.0655743
-0.000907042
1.02022
0.000828502
0.89257
-0.00621271
0.916012
0.00171921
0.835098
-0.00285264
0.813839
0.00165629
0.767304
0.00018883
0.730882
0.00256321
0.697091
0.00335087
0.659102
0.00398217
0.630251
0.00550034
0.596589
0.00570307
0.568842
0.00651154
0.540234
0.00700494
0.513735
0.00733974
0.488664
0.00756451
0.464854
0.00766388
0.44228
0.00760803
0.420884
0.0073405
0.400612
0.00686933
0.381365
0.00620923
0.363104
0.00538327
0.345785
0.00444472
0.329363
0.00345847
0.313797
0.00248098
0.299081
0.00155017
0.285236
0.000703424
0.272211
-6.94372e-05
0.259985
-0.000815228
0.248521
-0.00151833
0.237705
-0.00218318
0.227449
-0.00281028
0.21775
-0.00339257
0.208643
-0.00392648
0.200176
-0.004395
0.192281
-0.00489277
0.184886
-0.00546225
0.177847
-0.00609767
0.171079
-0.00673166
0.164517
-0.00726714
0.158234
-0.00764439
0.152261
-0.00785525
0.146599
-0.00793132
0.141141
-0.00790765
0.135824
-0.00779882
0.130575
-0.00756329
0.125542
-0.00717356
0.120552
-0.00613656
0.114355
-0.00398042
0.101442
0.0615939
0.00155532
1.01867
-0.00138838
0.895514
-0.0044147
0.919039
0.000351332
0.830332
-0.00404001
0.818231
0.000110277
0.763154
-0.00206576
0.733058
0.00060585
0.694419
-0.000534848
0.660243
0.00110249
0.628614
0.0014397
0.596252
0.00201042
0.568271
0.00279662
0.539448
0.00306086
0.513471
0.00349602
0.488229
0.00384065
0.464509
0.00408278
0.442038
0.00422332
0.420744
0.00427654
0.400559
0.00416761
0.381474
0.00386108
0.36341
0.00334887
0.346298
0.00264463
0.330068
0.00180198
0.314639
0.000859693
0.300024
-0.000117456
0.286213
-0.00115379
0.273247
-0.00219915
0.26103
-0.00321482
0.249536
-0.00420194
0.238692
-0.00513399
0.228381
-0.00598037
0.218597
-0.00672404
0.209387
-0.00733003
0.200782
-0.00780723
0.192758
-0.00818392
0.185263
-0.00851555
0.178179
-0.00883473
0.171398
-0.00915287
0.164835
-0.00940983
0.158491
-0.00955699
0.152408
-0.00956116
0.146603
-0.00941278
0.140993
-0.00910534
0.135516
-0.00865318
0.130122
-0.00806992
0.124959
-0.00740593
0.119888
-0.00628007
0.113229
-0.00407606
0.0992381
0.0575178
0.00236444
1.0163
-0.0024561
0.900334
-0.00294613
0.919529
-0.00104796
0.828434
-0.00381819
0.821001
-0.000614558
0.75995
-0.00287599
0.735319
-0.00052333
0.692066
-0.00178939
0.661509
-0.000424774
0.627249
-0.00109797
0.596925
-0.000322777
0.567496
-0.000451778
0.539577
-0.000135354
0.513155
3.45208e-06
0.48809
0.000187902
0.464325
0.000340007
0.441886
0.000456435
0.420627
0.000528054
0.400487
0.00054774
0.381454
0.000481995
0.363476
0.00027948
0.3465
-8.38588e-05
0.330431
-0.000644709
0.3152
-0.00136558
0.300744
-0.00220319
0.287051
-0.00306579
0.27411
-0.00393442
0.261899
-0.00480754
0.250409
-0.00569528
0.23958
-0.00659571
0.229281
-0.00746819
0.219469
-0.00827731
0.210196
-0.00896592
0.201471
-0.00950495
0.193297
-0.00988166
0.185639
-0.010124
0.178421
-0.0102753
0.17155
-0.0103918
0.164951
-0.010477
0.158576
-0.010515
0.152446
-0.0104853
0.146573
-0.0103892
0.140897
-0.0102289
0.135356
-0.00998374
0.129877
-0.00956279
0.124538
-0.0088326
0.119158
-0.00736981
0.111766
-0.00451135
0.0963797
0.0530065
0.00236802
1.01393
-0.00278196
0.905484
-0.00213632
0.918883
-0.00250291
0.828801
-0.00358526
0.822083
-0.00188667
0.758252
-0.00329286
0.736726
-0.00172906
0.690502
-0.00262267
0.662402
-0.00178849
0.626415
-0.00220433
0.597341
-0.00183592
0.567127
-0.00196627
0.539707
-0.00192037
0.513109
-0.00196135
0.488131
-0.00202821
0.464391
-0.0020933
0.441951
-0.00214912
0.420683
-0.00223793
0.400576
-0.00233058
0.381547
-0.0024405
0.363586
-0.00260114
0.346661
-0.00285526
0.330685
-0.00323709
0.315582
-0.00377282
0.30128
-0.00442852
0.287706
-0.00513928
0.27482
-0.00586246
0.262622
-0.00657666
0.251124
-0.00728886
0.240292
-0.0080159
0.230008
-0.00874902
0.220202
-0.00947478
0.210922
-0.0101765
0.202173
-0.0108284
0.193949
-0.0113955
0.186207
-0.0118413
0.178867
-0.012127
0.171835
-0.0122401
0.165065
-0.0121885
0.158525
-0.0119949
0.152252
-0.0116865
0.146265
-0.0112923
0.140503
-0.0108171
0.134881
-0.0102661
0.129326
-0.00964413
0.123916
-0.00875335
0.118267
-0.00733541
0.110348
-0.00452241
0.0935667
0.0484841
0.00209349
1.01184
-0.00274123
0.910319
-0.00165158
0.917793
-0.00316728
0.830317
-0.0033056
0.822222
-0.00279364
0.75774
-0.00349746
0.737429
-0.00266498
0.68967
-0.00326474
0.663002
-0.00275656
0.625907
-0.00306229
0.597647
-0.00286414
0.566929
-0.00301712
0.53986
-0.00305053
0.513142
-0.00318072
0.488261
-0.00333725
0.464548
-0.00350522
0.442119
-0.00369061
0.420869
-0.00388528
0.400771
-0.00408377
0.381745
-0.00428599
0.363788
-0.00449126
0.346866
-0.00472055
0.330914
-0.00501554
0.315877
-0.00540955
0.301674
-0.00591788
0.288215
-0.00652356
0.275426
-0.00718778
0.263286
-0.00786111
0.251797
-0.00851266
0.240944
-0.00913042
0.230626
-0.00968996
0.220762
-0.0101625
0.211394
-0.010548
0.202558
-0.0108612
0.194262
-0.01114
0.186485
-0.0114247
0.179152
-0.0117213
0.172132
-0.0119903
0.165334
-0.012174
0.158708
-0.0122155
0.152294
-0.0120954
0.146145
-0.011854
0.140261
-0.0115597
0.134587
-0.0112445
0.129011
-0.0108621
0.123534
-0.00994222
0.117347
-0.00822655
0.108632
-0.004827
0.0901671
0.0436571
0.00173412
1.01011
-0.00250599
0.914559
-0.00131927
0.916607
-0.00325331
0.832251
-0.00292848
0.821897
-0.00325162
0.758063
-0.00344532
0.737623
-0.00319894
0.689424
-0.00354298
0.663346
-0.00331031
0.625674
-0.00356532
0.597902
-0.00351726
0.566881
-0.00367627
0.540019
-0.00378579
0.513252
-0.00395458
0.48843
-0.00414823
0.464742
-0.00436223
0.442333
-0.00460802
0.421114
-0.00486387
0.401027
-0.00513051
0.382012
-0.00539675
0.364054
-0.00564709
0.347116
-0.00588315
0.331151
-0.00611989
0.316114
-0.00638535
0.30194
-0.00672231
0.288552
-0.00716351
0.275867
-0.00770996
0.263833
-0.00833618
0.252423
-0.00901575
0.241623
-0.00973301
0.231343
-0.0104509
0.22148
-0.0111017
0.212045
-0.0116367
0.203093
-0.0120277
0.194653
-0.0122759
0.186734
-0.012418
0.179294
-0.0125126
0.172227
-0.0125929
0.165414
-0.0126644
0.15878
-0.0126833
0.152313
-0.0125823
0.146044
-0.0123132
0.139992
-0.0118585
0.134132
-0.0112692
0.128422
-0.0106554
0.12292
-0.00965902
0.116351
-0.00805217
0.107025
-0.00471048
0.0868254
0.0389466
0.001389
1.00872
-0.00210446
0.918052
-0.00104553
0.915548
-0.00297694
0.834182
-0.00248661
0.821406
-0.00321566
0.758792
-0.00315722
0.737565
-0.0033054
0.689572
-0.00344408
0.663485
-0.00346841
0.625699
-0.00364145
0.598075
-0.00372262
0.566962
-0.00387463
0.540171
-0.00404306
0.51342
-0.00423205
0.488619
-0.00444929
0.464959
-0.00468782
0.442572
-0.00495553
0.421382
-0.00524184
0.401313
-0.00555042
0.382321
-0.00586474
0.364368
-0.00616488
0.347417
-0.00644109
0.331427
-0.00668508
0.316358
-0.00690264
0.302157
-0.00712232
0.288771
-0.00738465
0.276129
-0.00772225
0.26417
-0.00813452
0.252835
-0.00861223
0.242101
-0.00915605
0.231887
-0.00975472
0.222078
-0.0103482
0.212638
-0.0108667
0.203612
-0.011262
0.195048
-0.0115261
0.186998
-0.0116841
0.179452
-0.0117807
0.172323
-0.0118481
0.165481
-0.0119161
0.158848
-0.0119896
0.152386
-0.0120509
0.146105
-0.0120789
0.14002
-0.0120727
0.134126
-0.0120149
0.128364
-0.0117536
0.122659
-0.0108859
0.115483
-0.00891478
0.105054
-0.00494051
0.0828512
0.0340061
0.00110153
1.00761
-0.00153532
0.920689
-0.000778296
0.914791
-0.00249393
0.835898
-0.00202471
0.820937
-0.00282507
0.759592
-0.00268685
0.737426
-0.00303405
0.689919
-0.00308138
0.663532
-0.00326974
0.625887
-0.00337735
0.598182
-0.00355696
0.567142
-0.00369092
0.540305
-0.00389252
0.513622
-0.00408261
0.488809
-0.00430321
0.465179
-0.00454208
0.442811
-0.00480238
0.421642
-0.00508398
0.401595
-0.00539173
0.382628
-0.00571466
0.364691
-0.00603777
0.34774
-0.00634872
0.331738
-0.00663273
0.316642
-0.00688409
0.302409
-0.00711217
0.288999
-0.00734256
0.27636
-0.00760284
0.264431
-0.0079195
0.253152
-0.00830942
0.242491
-0.00879572
0.232373
-0.00939886
0.222682
-0.0100912
0.213331
-0.0107955
0.204316
-0.0114214
0.195674
-0.0118969
0.187473
-0.0122021
0.179757
-0.0123727
0.172494
-0.0124494
0.165558
-0.0124616
0.15886
-0.0124247
0.152349
-0.0123428
0.146023
-0.0122058
0.139883
-0.0119851
0.133905
-0.0116923
0.128071
-0.0112848
0.122251
-0.0105069
0.114705
-0.00880052
0.103348
-0.0049051
0.0789557
0.029101
0.000742446
1.00687
-0.00101927
0.922451
-0.000524206
0.914296
-0.0016833
0.837057
-0.00146848
0.820722
-0.00214434
0.760268
-0.00214174
0.737424
-0.00253493
0.690312
-0.00256118
0.663558
-0.00280898
0.626135
-0.00289717
0.598271
-0.00312214
0.567367
-0.0032546
0.540438
-0.00346372
0.513831
-0.00365112
0.488997
-0.0038613
0.46539
-0.00408422
0.443033
-0.00432087
0.421879
-0.00457647
0.40185
-0.00485378
0.382906
-0.00514892
0.364987
-0.00545424
0.348045
-0.00575791
0.332041
-0.006046
0.31693
-0.00630621
0.302669
-0.00653233
0.289226
-0.00673039
0.276558
-0.00692026
0.26462
-0.00711216
0.253344
-0.00731781
0.242697
-0.00756498
0.23262
-0.00789487
0.223011
-0.00833063
0.213766
-0.00885562
0.204841
-0.00941969
0.196238
-0.00996073
0.188014
-0.010432
0.180228
-0.0108226
0.172884
-0.011145
0.16588
-0.0114113
0.159126
-0.0116276
0.152566
-0.0118035
0.146199
-0.0119647
0.140044
-0.0121574
0.134098
-0.0124123
0.128326
-0.0123323
0.122171
-0.0116641
0.114037
-0.00951676
0.101201
-0.00510169
0.0745407
0.0239993
0.000368141
1.0065
-0.000377778
0.923197
-0.000347683
0.914266
-0.000753425
0.837462
-0.00097801
0.820947
-0.00135182
0.760642
-0.001518
0.73759
-0.0017567
0.690551
-0.00192797
0.66373
-0.00219231
0.626399
-0.00230288
0.598381
-0.00256304
0.567627
-0.00267865
0.540553
-0.00288976
0.514042
-0.00307383
0.489181
-0.00326098
0.465577
-0.00345542
0.443228
-0.00365715
0.422081
-0.00387247
0.402066
-0.00410364
0.383137
-0.00435177
0.365235
-0.00461594
0.348309
-0.00489155
0.332317
-0.00517373
0.317212
-0.0054594
0.302954
-0.00573958
0.289506
-0.0060101
0.276828
-0.00626957
0.26488
-0.00653888
0.253613
-0.00683338
0.242991
-0.00717012
0.232957
-0.00758416
0.223426
-0.00809955
0.214282
-0.0086963
0.205438
-0.00932454
0.196867
-0.00991996
0.18861
-0.0104409
0.180749
-0.0108917
0.173335
-0.0112999
0.166289
-0.0116705
0.159497
-0.0119863
0.152882
-0.0122168
0.146429
-0.0123345
0.140162
-0.0123187
0.134082
-0.0122911
0.128298
-0.0119954
0.121875
-0.0113097
0.113351
-0.00929653
0.0991875
-0.00482921
0.0700733
0.0191701
0.000175986
1.00633
0.00027814
0.923095
-0.000187594
0.914731
-0.000165119
0.83744
-0.000827572
0.821609
-0.000458583
0.760273
-0.00121969
0.738351
-0.00104055
0.690372
-0.0014368
0.664126
-0.00157677
0.626539
-0.00174766
0.598552
-0.00200473
0.567884
-0.00211547
0.540664
-0.00232636
0.514253
-0.00249108
0.489345
-0.00265553
0.465741
-0.00281879
0.443391
-0.00298381
0.422246
-0.0031557
0.402238
-0.00333477
0.383316
-0.00352276
0.365423
-0.00372069
0.348507
-0.0039272
0.332523
-0.00414035
0.317425
-0.00435477
0.303169
-0.00456511
0.289716
-0.00476345
0.277027
-0.00495196
0.265068
-0.00512647
0.253788
-0.00528832
0.243153
-0.00545955
0.233128
-0.00568513
0.223651
-0.00602409
0.214621
-0.00651342
0.205927
-0.00713475
0.197488
-0.00781324
0.189288
-0.00846608
0.181402
-0.00905767
0.173927
-0.00962192
0.166853
-0.0102008
0.160076
-0.010807
0.153488
-0.0114216
0.147044
-0.0120332
0.140773
-0.0126657
0.134714
-0.0132739
0.128907
-0.0133355
0.121937
-0.0126054
0.112621
-0.00999244
0.0965745
-0.00489717
0.0649781
0.0142729
-0.000189992
1.00652
0.000764588
0.92214
-0.000171895
0.915668
0.000199428
0.837069
-0.000560943
0.82237
-7.95488e-05
0.759792
-0.000819353
0.739091
-0.000564223
0.690117
-0.00120236
0.664764
-0.00104448
0.626381
-0.00148883
0.598996
-0.00151791
0.567913
-0.00177147
0.540918
-0.00192204
0.514404
-0.00206818
0.489491
-0.00220479
0.465878
-0.00233368
0.44352
-0.00245976
0.422372
-0.00258732
0.402365
-0.00271664
0.383445
-0.00285021
0.365556
-0.00299318
0.34865
-0.00315344
0.332684
-0.00334011
0.317612
-0.00355833
0.303387
-0.00380387
0.289962
-0.00407637
0.277299
-0.0043616
0.265354
-0.0046637
0.25409
-0.00498136
0.243471
-0.00530968
0.233457
-0.00566401
0.224005
-0.00607979
0.215037
-0.00659699
0.206444
-0.0072391
0.19813
-0.00798213
0.190031
-0.00875067
0.182171
-0.00946743
0.174644
-0.0101174
0.167503
-0.0107333
0.160692
-0.0113514
0.154106
-0.0119624
0.147655
-0.0125171
0.141328
-0.012957
0.135154
-0.0133119
0.129262
-0.0132432
0.121868
-0.0125226
0.111901
-0.00994074
0.0939926
-0.00447338
0.0595107
0.00979956
-0.000823095
1.00734
0.000863844
0.920453
-0.000325505
0.916857
0.000690791
0.836052
-0.000374795
0.823435
0.000145551
0.759271
-0.000599256
0.739836
-0.000471836
0.689989
-0.000963631
0.665256
-0.000996081
0.626414
-0.00134715
0.599348
-0.00144239
0.568008
-0.00169093
0.541166
-0.00182123
0.514534
-0.00195883
0.489629
-0.00206765
0.465987
-0.00215886
0.443611
-0.00223655
0.42245
-0.00230525
0.402434
-0.00236604
0.383506
-0.00242111
0.365611
-0.00247518
0.348704
-0.00253486
0.332743
-0.00260617
0.317683
-0.00269157
0.303472
-0.00279108
0.290061
-0.00289751
0.277406
-0.00302217
0.265478
-0.00316393
0.254232
-0.00331854
0.243625
-0.00350389
0.233642
-0.00373935
0.224241
-0.00405822
0.215355
-0.00450491
0.206891
-0.00511442
0.198739
-0.00588191
0.190799
-0.00676127
0.18305
-0.00767864
0.175561
-0.0085905
0.168415
-0.00949595
0.161597
-0.0104232
0.155033
-0.0113963
0.148628
-0.0124376
0.142369
-0.0135747
0.136291
-0.0145421
0.130229
-0.0149101
0.122236
-0.0140122
0.111003
-0.0105725
0.0905529
-0.00401036
0.0529486
0.0057892
-0.0015054
1.00885
0.000854889
0.918093
-0.000677487
0.91839
0.000843001
0.834532
-0.000465732
0.824744
2.5079e-05
0.75878
-0.000680453
0.740541
-0.000692138
0.690001
-0.00109307
0.665657
-0.00131111
0.626632
-0.00157207
0.599609
-0.00179387
0.56823
-0.00199234
0.541365
-0.00214183
0.514683
-0.00228467
0.489772
-0.00238235
0.466084
-0.00245022
0.443679
-0.00249247
0.422492
-0.00251666
0.402458
-0.00252646
0.383516
-0.00252736
0.365612
-0.00253104
0.348708
-0.00255209
0.332764
-0.00260196
0.317733
-0.00268984
0.30356
-0.00282565
0.290197
-0.00301798
0.277598
-0.00324692
0.265707
-0.00350223
0.254487
-0.00378522
0.243908
-0.00408186
0.233939
-0.00439571
0.224555
-0.00475547
0.215715
-0.00521361
0.207349
-0.00581481
0.199341
-0.00659071
0.191575
-0.00750907
0.183968
-0.00849182
0.176544
-0.00948017
0.169403
-0.0104671
0.162584
-0.0114678
0.156034
-0.0124711
0.149631
-0.0134166
0.143315
-0.0142933
0.137168
-0.0149295
0.130865
-0.0151023
0.122409
-0.0141272
0.110028
-0.0105169
0.0869426
-0.00344445
0.0458761
0.00234475
-0.00227264
1.01112
0.00078288
0.915037
-0.00128028
0.920453
0.000514364
0.832737
-0.000937978
0.826196
-0.00048794
0.75833
-0.00115768
0.741211
-0.00129042
0.690134
-0.00163422
0.666001
-0.00201235
0.62701
-0.00222117
0.599817
-0.00255218
0.568561
-0.00273151
0.541544
-0.00290788
0.51486
-0.00303619
0.4899
-0.00311714
0.466165
-0.00315884
0.443721
-0.00316295
0.422496
-0.00313416
0.402429
-0.0030755
0.383457
-0.00299186
0.365529
-0.00289054
0.348607
-0.00277881
0.332653
-0.00266397
0.317618
-0.00255382
0.30345
-0.00245465
0.290098
-0.00237545
0.277519
-0.00234512
0.265677
-0.00237973
0.254522
-0.00248089
0.24401
-0.00265172
0.23411
-0.00288121
0.224784
-0.00316395
0.215998
-0.00352761
0.207713
-0.00404032
0.199853
-0.00476802
0.192302
-0.00573454
0.184935
-0.00688619
0.177695
-0.00812462
0.170642
-0.00939401
0.163853
-0.0107096
0.157349
-0.0121131
0.151035
-0.0136447
0.144847
-0.0153672
0.138891
-0.0166303
0.132128
-0.0172376
0.123016
-0.0159142
0.108704
-0.0112442
0.0822726
-0.00312252
0.0377544
-0.000777774
-0.00324369
1.01436
0.000421118
0.911373
-0.00225637
0.92313
-0.000245436
0.830726
-0.00183344
0.827784
-0.00134475
0.757842
-0.00208854
0.741955
-0.00235795
0.690403
-0.00268648
0.666329
-0.00322759
0.627551
-0.0034388
0.600029
-0.00386506
0.568988
-0.00408597
0.541765
-0.00430235
0.515076
-0.00443691
0.490035
-0.00451974
0.466248
-0.00455326
0.443754
-0.00454002
0.422483
-0.00448277
0.402372
-0.00438914
0.383364
-0.00427506
0.365414
-0.00415967
0.348491
-0.00405695
0.33255
-0.00397472
0.317536
-0.00391951
0.303395
-0.00390101
0.290079
-0.00391085
0.277529
-0.00393199
0.265698
-0.00397489
0.254564
-0.00407278
0.244107
-0.00423562
0.234272
-0.00447203
0.225021
-0.00478709
0.216313
-0.00518186
0.208107
-0.00566949
0.200341
-0.00629849
0.192931
-0.00712736
0.185764
-0.00817339
0.178741
-0.00939346
0.171862
-0.0107195
0.165179
-0.0121096
0.15874
-0.0135518
0.152477
-0.0149906
0.146285
-0.0163897
0.14029
-0.0174415
0.13318
-0.0178671
0.123442
-0.0165622
0.107399
-0.0116845
0.0773949
-0.00306303
0.0291329
-0.0038408
-0.00420671
1.01857
0.00018288
0.906983
-0.00311331
0.926426
-0.00100705
0.82862
-0.00271269
0.82949
-0.00244988
0.757579
-0.00310994
0.742615
-0.0036885
0.690982
-0.00392486
0.666565
-0.0046839
0.62831
-0.0048852
0.60023
-0.0053869
0.569489
-0.00565917
0.542037
-0.00591964
0.515337
-0.00608286
0.490198
-0.00619072
0.466356
-0.00623924
0.443803
-0.00622521
0.422469
-0.0061425
0.402289
-0.00599017
0.383211
-0.00577598
0.3652
-0.00551006
0.348225
-0.00520519
0.332245
-0.0048815
0.317212
-0.00455818
0.303072
-0.00424761
0.289769
-0.0039809
0.277262
-0.00378119
0.265498
-0.00364869
0.254432
-0.00356603
0.244025
-0.00354101
0.234247
-0.00358339
0.225063
-0.00370788
0.216437
-0.00394695
0.208346
-0.00435727
0.200751
-0.00497396
0.193548
-0.00583078
0.18662
-0.00693768
0.179848
-0.00826089
0.173185
-0.00975342
0.166672
-0.0113985
0.160385
-0.0132272
0.154306
-0.0153012
0.148359
-0.0176186
0.142607
-0.019466
0.135027
-0.0202726
0.124249
-0.0184566
0.105583
-0.0124326
0.071371
-0.00299093
0.0196912
-0.00683173
-0.00605008
1.02462
-0.000831209
0.901764
-0.00490452
0.9305
-0.00260219
0.826318
-0.00444003
0.831328
-0.00447146
0.75761
-0.00502032
0.743164
-0.00583318
0.691794
-0.00611607
0.666848
-0.00699564
0.62919
-0.00729203
0.600526
-0.00781026
0.570007
-0.00812411
0.542351
-0.00840068
0.515613
-0.00859901
0.490396
-0.00873569
0.466493
-0.00881547
0.443883
-0.00884293
0.422496
-0.00882065
0.402267
-0.00875617
0.383147
-0.00865619
0.3651
-0.0085233
0.348092
-0.00835706
0.332079
-0.00815725
0.317012
-0.00793142
0.302846
-0.00768519
0.289522
-0.00741788
0.276995
-0.00715406
0.265234
-0.00694484
0.254223
-0.00682351
0.243903
-0.00679392
0.234218
-0.006844
0.225113
-0.00695814
0.216552
-0.00712558
0.208514
-0.00736086
0.200987
-0.00774244
0.19393
-0.00836427
0.187242
-0.00929175
0.180776
-0.0105198
0.174413
-0.0119835
0.168136
-0.0136176
0.162019
-0.0154101
0.156098
-0.0173431
0.150292
-0.0192655
0.14453
-0.0207183
0.13648
-0.0213299
0.12486
-0.0192363
0.10349
-0.0123632
0.0644979
-0.00293139
0.0102594
-0.00976312
-0.00656681
1.03119
-0.00079053
0.895988
-0.00481315
0.934522
-0.00364198
0.825147
-0.00489916
0.832585
-0.00609892
0.75881
-0.00603986
0.743105
-0.00758275
0.693337
-0.00766798
0.666934
-0.00883636
0.630358
-0.0092589
0.600949
-0.00988259
0.570631
-0.0102835
0.542752
-0.0106587
0.515988
-0.0109375
0.490675
-0.011128
0.466683
-0.0112215
0.443976
-0.0112119
0.422487
-0.0111013
0.402156
-0.0109034
0.382949
-0.0106366
0.364833
-0.010314
0.34777
-0.00995124
0.331716
-0.00956448
0.316626
-0.00916084
0.302442
-0.0087502
0.289112
-0.00833695
0.276581
-0.00792976
0.264827
-0.00752334
0.253816
-0.00713492
0.243515
-0.00680514
0.233888
-0.00657218
0.22488
-0.00646964
0.216449
-0.00652111
0.208565
-0.00671681
0.201182
-0.00704921
0.194262
-0.00756796
0.187761
-0.00836694
0.181575
-0.00951716
0.175563
-0.0110136
0.169632
-0.0128115
0.163817
-0.0149065
0.158193
-0.0174026
0.152788
-0.0202148
0.147342
-0.0226069
0.138872
-0.0233916
0.125645
-0.0204505
0.100548
-0.0118985
0.0559459
-0.00317875
0.0015396
-0.0129419
-0.0101281
1.04131
-0.00367427
0.889534
-0.00776903
0.938617
-0.006869
0.824246
-0.00677518
0.832491
-0.00863222
0.760667
-0.00820851
0.742681
-0.0101889
0.695318
-0.0103854
0.66713
-0.0115044
0.631477
-0.0120174
0.601462
-0.0126566
0.57127
-0.013122
0.543217
-0.0135574
0.516424
-0.0139218
0.49104
-0.0142209
0.466982
-0.0144478
0.444203
-0.014598
0.422637
-0.0146726
0.402231
-0.014668
0.382944
-0.0145786
0.364744
-0.0144045
0.347596
-0.0141517
0.331463
-0.0138315
0.316306
-0.0134563
0.302067
-0.0130363
0.288692
-0.0126001
0.276145
-0.012165
0.264392
-0.0117606
0.253412
-0.0113853
0.24314
-0.0110295
0.233532
-0.0106949
0.224546
-0.0104064
0.216161
-0.0101848
0.208344
-0.0100757
0.201073
-0.0101292
0.194315
-0.0103807
0.188013
-0.0108855
0.182079
-0.0117163
0.176394
-0.012915
0.170831
-0.0144602
0.165362
-0.0163382
0.160071
-0.0185448
0.154995
-0.0207847
0.149582
-0.0226293
0.140717
-0.0232785
0.126294
-0.0202318
0.0975018
-0.0111269
0.046841
-0.00352548
-0.00606184
-0.0164674
-0.00840049
1.04972
-0.00266793
0.883801
-0.00474718
0.940696
-0.00838318
0.827882
-0.00583781
0.829946
-0.0100299
0.764859
-0.0092096
0.741861
-0.0119674
0.698076
-0.0122266
0.667389
-0.0135896
0.63284
-0.0142566
0.602129
-0.01502
0.572034
-0.0155951
0.543792
-0.0160817
0.51691
-0.0164632
0.491421
-0.0167427
0.467262
-0.0169214
0.444382
-0.0170043
0.42272
-0.0170004
0.402227
-0.0169165
0.38286
-0.0167525
0.36458
-0.0165085
0.347352
-0.0161833
0.331138
-0.0157779
0.3159
-0.0153027
0.301592
-0.0147696
0.288159
-0.0141842
0.27556
-0.0135494
0.263757
-0.0129017
0.252764
-0.0122647
0.242503
-0.0116698
0.232937
-0.0111426
0.224018
-0.0106928
0.215711
-0.0103246
0.207975
-0.0100461
0.200795
-0.009892
0.194161
-0.00992532
0.188046
-0.0102238
0.182378
-0.0108708
0.177041
-0.0119322
0.171892
-0.0134284
0.166858
-0.0153447
0.161987
-0.0178828
0.157533
-0.020908
0.152607
-0.0236337
0.143443
-0.0242379
0.126898
-0.0205315
0.0937954
-0.0108472
0.0371567
-0.00385715
-0.0130519
-0.0203245
-0.0148355
1.06455
-0.0108291
0.879795
-0.00610194
0.935969
-0.0120857
0.833866
-0.00840411
0.826264
-0.0131072
0.769562
-0.0122586
0.741012
-0.0146934
0.70051
-0.0150287
0.667725
-0.0160761
0.633888
-0.0169526
0.603005
-0.0178995
0.572981
-0.0187115
0.544604
-0.0194287
0.517628
-0.0200392
0.492032
-0.0205407
0.467763
-0.0209277
0.444769
-0.0212067
0.422999
-0.0213857
0.402406
-0.0214702
0.382945
-0.021456
0.364566
-0.0213469
0.347243
-0.0211391
0.33093
-0.0208271
0.315588
-0.0204219
0.301187
-0.0199413
0.287678
-0.0194086
0.275027
-0.0188476
0.263196
-0.0182389
0.252156
-0.0175761
0.24184
-0.0168762
0.232237
-0.0161846
0.223327
-0.0155129
0.215039
-0.0149063
0.207369
-0.0143711
0.20026
-0.0139117
0.193702
-0.0135614
0.187696
-0.0133965
0.182213
-0.0135248
0.177169
-0.0140512
0.172419
-0.0150424
0.167849
-0.0165365
0.163482
-0.0184637
0.15946
-0.0206223
0.154766
-0.0227858
0.145606
-0.0238254
0.127938
-0.0204099
0.09038
-0.0108416
0.0275883
-0.00414668
-0.0197468
-0.0244712
0.00273243
1.06182
-0.00858377
0.891111
0.00197878
0.925407
-0.0111759
0.847021
-0.00632597
0.821414
-0.0125159
0.775752
-0.0118892
0.740385
-0.0146975
0.703319
-0.016138
0.669165
-0.0176748
0.635424
-0.0188256
0.604156
-0.0199095
0.574064
-0.0208315
0.545526
-0.0216367
0.518433
-0.022322
0.492717
-0.0228855
0.468327
-0.023327
0.44521
-0.0236355
0.423307
-0.0238156
0.402586
-0.0238813
0.383011
-0.0238406
0.364525
-0.0236935