/*--------------------------------*- C++ -*----------------------------------*\
| =========                 |                                                 |
| \\      /  F ield         | OpenFOAM: The Open Source CFD Toolbox           |
|  \\    /   O peration     | Version:  v1912                                 |
|   \\  /    A nd           | Website:  www.openfoam.com                      |
|    \\/     M anipulation  |                                                 |
\*---------------------------------------------------------------------------*/
FoamFile
{
    version     2.0;
    format      ascii;
    class       volVectorField;
    location    "0.01";
    object      U;
}
// * * * * * * * * * * * * * * * * * * * * * * * * * * * * * * * * * * * * * //

dimensions      [0 1 -1 0 0 0 0];


internalField   nonuniform List<vector> 
6600
(
(38.5982 -1.26351 0)
(40.7051 -0.182957 1.59693e-20)
(40.0103 -0.234901 1.11511e-18)
(40.5383 0.409035 0)
(40.1768 0.597548 1.21611e-18)
(40.3191 0.737436 3.85176e-20)
(40.3249 0.778952 -4.28147e-20)
(40.3369 0.7828 -4.66765e-20)
(40.3633 0.803034 9.41627e-19)
(40.3771 0.83869 -8.46378e-20)
(40.389 0.893021 0)
(40.3966 0.969109 -1.15715e-18)
(40.4051 1.05917 0)
(40.4184 1.16515 -1.28588e-18)
(40.4242 1.27973 -1.72035e-18)
(40.4299 1.39353 -9.07667e-19)
(40.4332 1.51692 0)
(40.4387 1.66354 0)
(40.45 1.83639 1.43565e-18)
(40.4629 2.03357 -1.29321e-18)
(40.4732 2.25544 -1.91386e-19)
(40.4796 2.50606 -7.01366e-19)
(40.478 2.78981 -1.27133e-18)
(40.467 3.11163 2.69086e-19)
(40.4447 3.4773 9.92643e-19)
(40.4215 3.88568 0)
(40.4029 4.33907 2.2462e-18)
(40.4017 4.83606 0)
(40.425 5.3815 -9.48098e-19)
(40.4769 5.97987 -5.35031e-19)
(40.5423 6.64319 -3.46769e-19)
(40.6012 7.37704 -5.33244e-19)
(40.642 8.19117 -2.5974e-19)
(40.6631 9.09123 3.00921e-19)
(40.6684 10.0782 4.02944e-19)
(40.6769 11.1507 4.97717e-20)
(40.7049 12.3108 4.43931e-19)
(40.7642 13.564 -2.74467e-19)
(40.8366 14.9165 3.84649e-19)
(40.9104 16.3939 -6.43415e-19)
(40.9792 17.9955 -5.60082e-19)
(41.038 19.7427 0)
(41.0788 21.6267 1.24381e-18)
(41.1625 23.6818 -2.61911e-18)
(41.312 25.855 0)
(41.5136 28.2297 -3.52177e-18)
(41.5548 30.54 -8.26184e-18)
(42.0708 33.2486 0)
(40.6656 35.0397 0)
(31.2328 29.1736 -3.90689e-18)
(35.9899 0.465291 1.16481e-18)
(40.921 0.156204 -6.07857e-19)
(39.0116 0.30359 0)
(40.6483 0.365608 -1.66987e-20)
(39.9174 0.506491 1.27777e-18)
(40.424 0.398891 3.72752e-20)
(40.2993 0.51531 6.64567e-22)
(40.3657 0.535288 -4.68716e-20)
(40.3744 0.613298 0)
(40.3861 0.707992 -1.72007e-18)
(40.4071 0.805309 -6.17552e-20)
(40.4271 0.909675 1.07005e-18)
(40.4526 1.01544 1.11518e-18)
(40.479 1.13846 7.28347e-19)
(40.4974 1.26442 6.02393e-22)
(40.5144 1.40047 1.04203e-19)
(40.532 1.5636 -8.9145e-19)
(40.5555 1.75373 0)
(40.5868 1.96381 0)
(40.6223 2.19139 1.32252e-18)
(40.6609 2.43718 1.71556e-19)
(40.7024 2.70367 -9.01801e-19)
(40.7435 2.99568 -7.71758e-19)
(40.7823 3.31911 -8.31962e-19)
(40.8131 3.68227 -6.43968e-19)
(40.8347 4.08671 -2.72248e-19)
(40.8474 4.54056 -3.77212e-19)
(40.8566 5.04355 -3.10702e-19)
(40.8797 5.59937 8.99228e-19)
(40.9291 6.20509 3.01312e-19)
(41.0148 6.86701 -9.60015e-19)
(41.1348 7.59373 7.82046e-19)
(41.269 8.40191 1.53933e-19)
(41.3913 9.30407 -4.03312e-19)
(41.4964 10.3057 4.47769e-19)
(41.5977 11.4015 -5.09079e-20)
(41.7201 12.5948 -8.69238e-19)
(41.888 13.884 -4.95707e-20)
(42.0992 15.2701 7.69204e-19)
(42.3367 16.7675 1.0074e-18)
(42.5978 18.369 0)
(42.8801 20.083 0)
(43.158 21.9077 1.87619e-18)
(43.4547 23.8786 -2.18164e-18)
(43.8001 25.9384 -6.35896e-18)
(44.2442 28.2123 3.63729e-18)
(44.5805 30.4717 1.09781e-17)
(45.3572 33.0612 0)
(44.1509 34.4418 -1.00975e-17)
(32.8966 28.411 4.31195e-18)
(35.7025 2.88495 -2.19089e-19)
(41.2924 0.00519522 6.1933e-19)
(38.8816 1.19097 1.16113e-18)
(41.0296 0.386807 -1.50823e-21)
(39.9298 0.62176 -1.00898e-19)
(40.7333 0.339703 3.72611e-20)
(40.3862 0.475997 0)
(40.5355 0.433412 0)
(40.5885 0.494388 0)
(40.5768 0.557191 9.41638e-19)
(40.5839 0.649707 -5.98072e-20)
(40.5827 0.761695 -1.07875e-18)
(40.5913 0.88098 -5.74978e-19)
(40.6013 1.01895 1.18348e-18)
(40.6141 1.15632 6.65634e-19)
(40.6275 1.31634 -9.75045e-20)
(40.6441 1.50364 1.81648e-18)
(40.669 1.71306 -8.90395e-19)
(40.7011 1.94261 -9.7275e-19)
(40.7405 2.19113 0)
(40.7883 2.46028 -5.70288e-19)
(40.8463 2.75406 7.19088e-19)
(40.9157 3.07528 7.81028e-19)
(40.9963 3.428 8.42476e-19)
(41.0854 3.81755 7.09944e-19)
(41.1775 4.2471 -3.1227e-20)
(41.2646 4.72324 -1.07569e-19)
(41.3403 5.24909 -1.97778e-19)
(41.4153 5.82454 -9.96551e-20)
(41.5024 6.44932 4.1146e-19)
(41.6154 7.12497 6.56409e-20)
(41.7718 7.85229 0)
(41.9732 8.64302 1.99506e-19)
(42.192 9.51028 -1.74554e-19)
(42.4036 10.4725 -5.03939e-19)
(42.6059 11.5357 -1.48154e-18)
(42.8206 12.6972 1.5484e-19)
(43.0813 13.9616 8.15039e-19)
(43.4061 15.3203 5.75084e-19)
(43.7769 16.7896 0)
(44.1745 18.3619 3.02634e-18)
(44.592 20.0386 0)
(45.0324 21.8118 0)
(45.523 23.7335 6.25722e-18)
(46.0932 25.7371 3.64595e-18)
(46.7629 27.9395 -5.93479e-18)
(47.3263 30.1554 -6.29537e-18)
(48.249 32.561 0)
(47.1109 33.4572 -6.14589e-18)
(34.3514 27.2418 6.54288e-18)
(37.2404 3.96315 -9.59008e-19)
(41.4121 -1.10974 5.86038e-21)
(38.8282 1.68199 -1.18435e-18)
(41.4192 0.0512724 -5.14932e-19)
(39.8606 0.915958 -1.23e-18)
(41.1325 0.23693 -3.51938e-19)
(40.4506 0.695101 -3.41684e-20)
(40.8865 0.512196 0)
(40.7149 0.647521 7.0216e-19)
(40.7927 0.68309 7.92623e-19)
(40.8304 0.75296 -5.41658e-20)
(40.8512 0.836691 -5.88116e-20)
(40.8709 0.929687 -4.89616e-19)
(40.8767 1.04344 -1.53585e-19)
(40.88 1.16763 -1.78216e-20)
(40.8766 1.32815 -8.58902e-20)
(40.8805 1.51396 -3.91819e-20)
(40.8949 1.71757 1.00124e-18)
(40.918 1.94067 1.26049e-18)
(40.9539 2.18402 0)
(41.0035 2.44845 1.31753e-19)
(41.0671 2.7376 0)
(41.1457 3.05558 0)
(41.2411 3.40563 -1.3917e-19)
(41.3574 3.79667 3.66283e-19)
(41.4912 4.23361 4.06085e-19)
(41.6396 4.71899 -6.84257e-20)
(41.7898 5.26155 2.91634e-19)
(41.9439 5.86469 0)
(42.1012 6.52882 0)
(42.2756 7.24825 -2.40464e-19)
(42.4875 8.0204 0)
(42.7623 8.84283 5.98245e-22)
(43.0854 9.72415 -7.20336e-19)
(43.4229 10.6759 1.23654e-18)
(43.7519 11.7125 2.02306e-18)
(44.0809 12.8432 -3.42043e-18)
(44.4416 14.0736 1.31861e-18)
(44.8886 15.4082 5.24396e-19)
(45.4277 16.8486 6.29993e-19)
(46.0445 18.4035 -7.14794e-18)
(46.7071 20.0456 0)
(47.3863 21.7551 0)
(48.0681 23.5645 -3.62131e-18)
(48.8263 25.4135 -5.71033e-18)
(49.7267 27.4296 -1.17468e-18)
(50.5873 29.5163 -9.16871e-18)
(51.6535 31.7283 1.01336e-17)
(50.366 32.2279 1.3612e-17)
(35.7685 25.6753 0)
(38.4697 3.91821 -2.46975e-21)
(40.7792 -2.24257 5.6417e-19)
(38.8538 2.02042 1.08326e-18)
(41.2556 -0.539007 5.44111e-19)
(39.5987 1.12122 0)
(41.0988 0.116378 3.50528e-20)
(40.2841 0.807787 0)
(40.9493 0.463662 -3.59463e-20)
(40.6863 0.712287 -1.3672e-18)
(40.8596 0.703373 -7.95339e-19)
(40.9003 0.796109 4.78133e-20)
(40.9615 0.893373 5.18663e-20)
(41.0346 1.00203 -5.77222e-20)
(41.0941 1.12559 -5.35738e-19)
(41.154 1.26491 -1.14163e-18)
(41.2082 1.43759 7.25977e-20)
(41.2618 1.63127 -1.23821e-18)
(41.3117 1.84212 7.89748e-20)
(41.3534 2.07246 -4.04281e-19)
(41.3887 2.32173 -1.77106e-19)
(41.4278 2.5911 5.41445e-19)
(41.4794 2.8806 0)
(41.5517 3.1949 0)
(41.6476 3.53422 -7.79516e-20)
(41.7681 3.90361 -2.13872e-19)
(41.9161 4.31075 -2.60968e-20)
(42.0868 4.75839 -1.37575e-20)
(42.2721 5.26034 0)
(42.476 5.82456 -7.87877e-20)
(42.6941 6.46324 8.7763e-20)
(42.9313 7.17085 2.44418e-19)
(43.2078 7.9507 1.07119e-18)
(43.5562 8.79451 -3.66183e-19)
(43.9815 9.70006 6.73929e-19)
(44.4592 10.6705 -7.49953e-19)
(44.9469 11.706 0)
(45.4273 12.8119 1.31005e-18)
(45.9086 13.9802 4.59174e-18)
(46.4353 15.2181 -2.50346e-18)
(47.0368 16.5422 -3.14403e-18)
(47.7235 17.9778 4.14472e-18)
(48.5042 19.525 0)
(49.3627 21.1659 0)
(50.2682 22.9337 -5.39237e-18)
(51.2386 24.7399 1.18537e-17)
(52.2892 26.6734 3.1619e-18)
(53.2989 28.6902 5.44577e-18)
(54.3129 30.6136 -1.20213e-17)
(52.7846 30.6651 9.16067e-19)
(36.65 23.8062 -1.83407e-17)
(39.3999 3.47708 6.75928e-19)
(40.2652 -2.60332 -7.59821e-21)
(39.3247 2.41849 -1.09922e-18)
(41.0966 -1.08811 2.52625e-19)
(39.6148 1.36971 0)
(41.0207 -0.211325 3.53344e-19)
(40.0988 0.987366 -1.68672e-20)
(40.9487 0.308267 -4.05414e-19)
(40.5327 0.795865 7.0151e-19)
(40.8988 0.659134 0)
(40.874 0.813476 4.32847e-20)
(40.983 0.894098 3.0831e-19)
(41.0674 0.997117 -4.31922e-19)
(41.1483 1.11572 5.56018e-20)
(41.2438 1.25169 5.51088e-19)
(41.345 1.41711 -6.15646e-20)
(41.4517 1.60377 3.94057e-19)
(41.5597 1.81472 -6.47679e-20)
(41.6667 2.05435 5.53281e-20)
(41.7733 2.32299 1.12315e-19)
(41.8807 2.6237 1.12303e-19)
(41.9925 2.95139 8.94818e-21)
(42.1132 3.30589 2.09167e-20)
(42.2489 3.68419 1.17593e-21)
(42.4061 4.08584 0)
(42.5876 4.51295 3.89065e-20)
(42.7921 4.96646 -8.74552e-20)
(43.015 5.45529 -3.53288e-20)
(43.2582 5.98015 -1.09211e-19)
(43.5207 6.55834 -2.15424e-19)
(43.7985 7.19643 8.546e-19)
(44.1116 7.90412 -7.54388e-19)
(44.4899 8.68614 0)
(44.9592 9.54606 0)
(45.5161 10.482 0)
(46.1358 11.5081 0)
(46.7848 12.6249 3.40682e-18)
(47.4573 13.8247 -6.60709e-18)
(48.171 15.0787 0)
(48.9687 16.3818 3.06117e-20)
(49.8494 17.7368 -4.48535e-19)
(50.8058 19.1466 -8.0237e-18)
(51.8091 20.6053 4.43989e-18)
(52.8506 22.1602 0)
(53.9848 23.7577 4.07889e-18)
(55.2608 25.503 -1.47232e-17)
(56.5163 27.403 1.05251e-17)
(57.5454 29.1325 7.7272e-18)
(55.531 28.8766 2.77734e-17)
(37.3731 21.7299 -2.08542e-17)
(40.1095 3.027 -6.75348e-19)
(39.9889 -2.58238 -1.08358e-18)
(40.0441 2.61714 1.02597e-20)
(40.9709 -1.34838 -2.52757e-19)
(39.949 1.69767 5.23838e-19)
(41.1375 -0.363863 -1.38753e-20)
(40.1713 1.16368 6.37375e-19)
(41.0805 0.243488 4.10051e-19)
(40.5182 0.933644 6.64344e-19)
(40.981 0.659262 -1.98402e-20)
(40.867 0.893889 -3.10702e-19)
(41.0367 0.917392 -6.7678e-20)
(41.1069 1.02611 3.81471e-19)
(41.2057 1.13435 0)
(41.3183 1.25337 0)
(41.4403 1.39304 2.26643e-20)
(41.5718 1.55021 3.43394e-19)
(41.7117 1.7285 0)
(41.8574 1.93519 1.66473e-20)
(42.0089 2.17552 -1.93946e-19)
(42.1684 2.45404 -1.31007e-19)
(42.336 2.77207 -5.4586e-20)
(42.5139 3.13141 0)
(42.7072 3.53023 7.29897e-20)
(42.9235 3.96532 7.53949e-20)
(43.1706 4.43465 -8.41089e-20)
(43.4519 4.9331 0)
(43.7642 5.46699 0)
(44.1049 6.03307 1.08917e-19)
(44.4661 6.63067 5.45225e-19)
(44.8354 7.26493 -1.44066e-18)
(45.2242 7.93709 6.39816e-19)
(45.6548 8.65362 9.9042e-19)
(46.1581 9.42829 -2.39425e-18)
(46.7478 10.2495 4.00967e-18)
(47.4204 11.1366 1.29655e-18)
(48.1487 12.1081 -2.33445e-18)
(48.9135 13.1803 3.0355e-18)
(49.7112 14.3354 -4.63805e-18)
(50.5819 15.5668 4.49726e-20)
(51.5489 16.8656 -5.16175e-19)
(52.629 18.2183 4.12082e-18)
(53.7936 19.5991 5.97878e-18)
(55.0028 21.044 -6.64205e-18)
(56.2556 22.5065 4.1476e-18)
(57.5679 24.1072 0)
(58.8749 25.9124 6.4065e-18)
(59.7166 27.3907 9.54448e-18)
(57.1767 26.7396 -1.96131e-17)
(37.3994 19.3476 -6.25665e-18)
(40.5743 2.63393 5.44318e-19)
(39.8656 -2.38319 5.20334e-19)
(40.5835 2.54141 5.17633e-21)
(40.742 -1.50404 -2.15655e-19)
(40.354 1.91006 -1.00041e-18)
(41.1191 -0.549987 2.29052e-19)
(40.4483 1.38295 -1.17243e-18)
(41.2074 0.140748 1.28107e-19)
(40.6644 1.09674 -6.49041e-19)
(41.1682 0.636226 -1.83487e-19)
(40.959 1.02359 6.0962e-19)
(41.1839 0.969782 -3.26859e-19)
(41.2123 1.1138 -2.3544e-19)
(41.3258 1.21258 2.16317e-21)
(41.4428 1.32415 -8.48159e-20)
(41.5753 1.45491 8.85085e-20)
(41.7243 1.59339 -1.51516e-19)
(41.8867 1.75031 0)
(42.0604 1.92491 0)
(42.2475 2.12316 0)
(42.4465 2.35185 1.62283e-20)
(42.6549 2.61835 3.3076e-20)
(42.872 2.92705 1.88992e-19)
(43.0993 3.2803 5.81201e-20)
(43.3459 3.6783 0)
(43.6228 4.12443 0)
(43.9448 4.61235 -4.76502e-19)
(44.3153 5.13914 3.15005e-19)
(44.7385 5.71228 -1.02929e-19)
(45.2066 6.3311 1.31176e-19)
(45.7013 6.99581 1.16413e-19)
(46.224 7.69923 1.13723e-18)
(46.785 8.43781 -6.37129e-19)
(47.4007 9.22009 2.36651e-18)
(48.0878 10.0323 -1.7626e-18)
(48.8486 10.878 -9.25891e-19)
(49.674 11.7686 2.42159e-19)
(50.5586 12.7283 1.91428e-18)
(51.5027 13.7575 2.04295e-18)
(52.5239 14.8571 3.05075e-18)
(53.6332 16.0235 -5.06452e-19)
(54.8363 17.2457 5.48264e-18)
(56.1119 18.4881 -6.09885e-18)
(57.4343 19.7573 0)
(58.8296 21 0)
(60.3517 22.3518 0)
(61.8358 23.9579 0)
(62.5818 25.1942 0)
(59.2097 24.3619 -1.17696e-17)
(37.2047 16.7856 1.92652e-17)
(40.8755 2.29893 -5.45423e-19)
(39.852 -2.13784 0)
(40.9719 2.34186 0)
(40.544 -1.51561 2.20862e-19)
(40.6955 1.94597 4.55847e-19)
(40.9978 -0.721459 -2.28018e-19)
(40.6977 1.48959 5.48035e-19)
(41.1956 -0.0276815 -1.28514e-19)
(40.8442 1.19098 2.32679e-19)
(41.283 0.505232 1.81543e-19)
(41.0911 1.0925 -2.64832e-19)
(41.3683 0.917758 1.26639e-19)
(41.3773 1.1582 3.18533e-19)
(41.5343 1.2263 0)
(41.6564 1.36447 1.03643e-19)
(41.8028 1.49585 -9.30119e-20)
(41.9651 1.63737 4.94723e-21)
(42.1451 1.79245 8.57822e-20)
(42.3466 1.96069 -1.6115e-19)
(42.5695 2.14428 0)
(42.8127 2.34639 0)
(43.0733 2.57432 -2.77255e-19)
(43.3459 2.83664 1.45595e-19)
(43.6265 3.13699 5.32557e-19)
(43.9162 3.47912 1.68411e-19)
(44.2192 3.86767 -6.65964e-19)
(44.5551 4.29883 1.1115e-18)
(44.9356 4.76761 -1.22746e-18)
(45.3748 5.27659 7.10976e-19)
(45.8761 5.83138 -6.40907e-19)
(46.4264 6.43897 3.86634e-19)
(47.0286 7.09719 -1.41213e-18)
(47.6969 7.80169 8.52249e-19)
(48.4367 8.55243 -1.67868e-18)
(49.255 9.33813 0)
(50.1419 10.1491 -1.58861e-18)
(51.0747 10.9779 -1.72472e-18)
(52.0316 11.8328 3.16785e-19)
(53.0126 12.7236 3.50604e-18)
(54.0491 13.6604 -3.53909e-18)
(55.1896 14.6624 -4.93575e-19)
(56.4623 15.7388 -6.18708e-18)
(57.8461 16.8677 1.45777e-17)
(59.2909 18.051 9.66874e-19)
(60.7619 19.2165 1.15837e-18)
(62.247 20.4535 -5.97956e-18)
(63.6895 21.9189 0)
(64.1106 22.9138 1.05466e-17)
(59.913 21.7531 -5.55914e-18)
(36.1888 14.0754 0)
(41.0962 2.0094 1.57423e-21)
(39.902 -1.89106 2.35355e-23)
(41.265 2.10082 -2.58431e-19)
(40.4382 -1.42887 0)
(41.011 1.8752 -4.01692e-21)
(40.8963 -0.795368 -7.93014e-20)
(40.9418 1.50905 0)
(41.1645 -0.167201 8.40097e-20)
(41.0355 1.22046 -2.42723e-19)
(41.3324 0.360157 1.044e-20)
(41.2357 1.09223 1.5319e-19)
(41.4842 0.785808 -9.57637e-20)
(41.5146 1.11729 -8.71847e-20)
(41.6863 1.12487 0)
(41.8216 1.28795 0)
(41.9849 1.41467 0)
(42.1654 1.5595 9.58686e-20)
(42.3655 1.71482 -8.7504e-20)
(42.5924 1.88248 3.16514e-19)
(42.8466 2.06433 -4.83462e-20)
(43.1309 2.2596 1.22707e-19)
(43.4452 2.47154 2.02273e-19)
(43.7841 2.70726 -9.2257e-19)
(44.1438 2.97334 -8.90661e-19)
(44.517 3.27592 0)
(44.8996 3.62085 6.31021e-19)
(45.2979 4.00466 -1.59645e-18)
(45.7246 4.423 1.08618e-18)
(46.1943 4.87419 -6.0582e-19)
(46.715 5.35913 3.62681e-19)
(47.2785 5.88464 -5.35024e-19)
(47.8892 6.45531 1.97025e-18)
(48.5756 7.07483 -2.40063e-18)
(49.3555 7.74515 3.18748e-18)
(50.244 8.47044 1.41892e-18)
(51.2461 9.2477 -3.38412e-18)
(52.345 10.068 4.23716e-18)
(53.5084 10.915 -2.86064e-18)
(54.7046 11.7772 -8.83903e-21)
(55.9126 12.6319 0)
(57.1544 13.4858 4.99437e-18)
(58.4716 14.3602 3.43106e-18)
(59.887 15.2581 4.14691e-19)
(61.3886 16.2013 -9.93547e-18)
(62.9777 17.1244 -4.56505e-19)
(64.6836 18.1296 -7.18678e-18)
(66.223 19.3788 0)
(66.4278 20.1207 1.13473e-17)
(61.0172 18.9628 -1.9303e-17)
(34.957 11.3611 0)
(41.2703 1.74879 0)
(39.9746 -1.6551 0)
(41.4873 1.84662 1.53449e-19)
(40.402 -1.30003 -6.67683e-21)
(41.2705 1.72442 1.34992e-19)
(40.8381 -0.797888 8.39378e-20)
(41.1757 1.44931 0)
(41.1556 -0.257072 -8.42003e-20)
(41.236 1.19543 1.37993e-19)
(41.3858 0.2356 0)
(41.4109 1.05073 -2.01447e-19)
(41.5974 0.648281 -3.15206e-20)
(41.6711 1.03664 -8.87456e-22)
(41.8407 0.986221 9.89592e-22)
(41.9866 1.15948 0)
(42.1615 1.26681 0)
(42.3539 1.40093 -2.62709e-20)
(42.5673 1.54477 -1.25321e-19)
(42.8074 1.70052 5.66746e-20)
(43.0756 1.86976 -3.35249e-20)
(43.3788 2.05141 8.33185e-20)
(43.7199 2.2464 -5.12456e-20)
(44.0984 2.4577 5.34444e-19)
(44.5144 2.69037 2.48309e-19)
(44.963 2.95067 -4.42357e-19)
(45.4375 3.2466 -7.29871e-19)
(45.9337 3.5808 5.63136e-19)
(46.455 3.95206 8.68282e-19)
(47.0107 4.3587 0)
(47.6084 4.79496 0)
(48.2359 5.25911 0)
(48.8884 5.75018 -1.38529e-18)
(49.5922 6.2661 -1.0004e-18)
(50.3726 6.80253 -1.11518e-18)
(51.2488 7.36609 1.56616e-18)
(52.2332 7.96201 1.96139e-18)
(53.3215 8.60819 -1.054e-18)
(54.4949 9.30716 2.96713e-18)
(55.7368 10.0665 -1.75158e-18)
(57.0366 10.8599 -2.37488e-18)
(58.3952 11.6678 -3.02567e-18)
(59.8171 12.4767 3.37408e-18)
(61.3065 13.2728 0)
(62.853 14.0866 5.62791e-18)
(64.4323 14.8962 -3.25082e-18)
(66.032 15.8052 4.02861e-18)
(67.3422 16.8332 0)
(67.1153 17.4193 -5.98873e-18)
(60.5838 16.0645 3.57161e-18)
(32.8313 8.63863 0)
(41.4091 1.50402 7.05435e-20)
(40.0478 -1.42898 0)
(41.6622 1.58846 1.92264e-19)
(40.4106 -1.15369 -6.12348e-20)
(41.4684 1.51905 -1.3144e-19)
(40.8117 -0.758099 2.73128e-21)
(41.3761 1.32013 -3.03966e-21)
(41.1581 -0.310685 0)
(41.4163 1.10558 -1.3617e-19)
(41.443 0.125721 -1.71168e-22)
(41.5777 0.956545 4.79467e-20)
(41.7081 0.509124 -5.99921e-21)
(41.8333 0.914752 -1.4753e-20)
(41.9985 0.8261 -6.69878e-21)
(42.1631 0.996578 4.92426e-21)
(42.3527 1.08169 0)
(42.5595 1.198 -1.09445e-19)
(42.7886 1.32289 1.56188e-19)
(43.0427 1.45918 2.31711e-20)
(43.3234 1.60763 -7.37224e-21)
(43.6374 1.767 4.72987e-20)
(43.989 1.93833 0)
(44.3818 2.12085 9.77244e-20)
(44.8201 2.31644 3.9303e-19)
(45.3041 2.52865 5.66086e-19)
(45.8311 2.76419 7.33845e-19)
(46.3959 3.03085 0)
(46.9967 3.33392 -6.07658e-19)
(47.6372 3.67623 -1.30855e-18)
(48.3246 4.05604 7.75226e-19)
(49.0469 4.47387 -1.70291e-18)
(49.7883 4.92832 -8.75648e-19)
(50.5634 5.41266 1.66216e-18)
(51.3996 5.91334 -6.27839e-19)
(52.32 6.42692 -1.5799e-18)
(53.3498 6.94461 -9.27977e-19)
(54.4942 7.47585 -1.25191e-18)
(55.7364 8.02255 0)
(57.0484 8.60792 -2.10732e-18)
(58.4124 9.22952 4.67805e-18)
(59.8339 9.88698 3.01586e-18)
(61.3276 10.5683 -3.60464e-18)
(62.8966 11.2364 4.88887e-18)
(64.528 11.8775 -2.55169e-18)
(66.2289 12.4431 6.92889e-18)
(68.0536 13.1081 1.48557e-19)
(69.2716 13.7844 0)
(68.6672 14.2377 1.24857e-17)
(60.5921 13.0122 -1.07457e-17)
(30.5884 6.08258 -4.18529e-18)
(41.5172 1.26768 -7.06025e-20)
(40.1119 -1.2117 5.25086e-20)
(41.7863 1.32773 -8.52415e-20)
(40.428 -1.00013 6.02356e-20)
(41.6164 1.28165 3.89683e-20)
(40.8101 -0.694727 2.06332e-21)
(41.5317 1.13258 -1.09416e-21)
(41.1717 -0.335858 0)
(41.561 0.953247 2.59e-20)
(41.4935 0.0284676 6.99537e-21)
(41.7123 0.810512 0)
(41.8011 0.361508 -2.62867e-21)
(41.9698 0.748034 -9.58245e-21)
(42.1321 0.639946 5.39326e-20)
(42.3171 0.792596 -9.43239e-20)
(42.5221 0.855898 -3.3311e-21)
(42.7462 0.949881 1.68699e-20)
(42.9943 1.05042 0)
(43.2673 1.16115 -1.0131e-19)
(43.5674 1.28328 2.24736e-19)
(43.8991 1.41488 -2.83577e-20)
(44.2658 1.5577 0)
(44.6727 1.70915 0)
(45.1248 1.86904 -2.21248e-19)
(45.6258 2.03753 9.27805e-20)
(46.1783 2.21719 -6.84744e-19)
(46.7795 2.41367 2.83689e-19)
(47.4278 2.63322 -1.68974e-19)
(48.125 2.88371 6.27156e-19)
(48.8765 3.16387 2.72105e-19)
(49.6749 3.47724 1.03323e-18)
(50.5005 3.82773 -9.85158e-19)
(51.3519 4.21206 6.22526e-19)
(52.2455 4.61657 -7.40706e-19)
(53.1987 5.03134 -9.53524e-19)
(54.2305 5.44299 -1.09617e-18)
(55.3519 5.85868 0)
(56.5619 6.27592 2.67228e-18)
(57.8465 6.71186 -1.01478e-18)
(59.2031 7.16963 -2.55787e-18)
(60.6313 7.658 3.10422e-18)
(62.1401 8.18801 -1.20153e-19)
(63.7377 8.74696 -2.55649e-18)
(65.399 9.32171 -7.56322e-20)
(67.0708 9.88229 -3.5678e-18)
(68.737 10.5277 -8.75677e-18)
(69.5944 11.0624 5.00498e-18)
(68.4045 11.3471 0)
(58.9504 10.0675 -7.7018e-18)
(27.5113 3.73358 1.4766e-17)
(41.5946 1.03365 -8.7763e-23)
(40.1593 -1.00031 -5.29396e-20)
(41.8833 1.06215 1.16833e-20)
(40.4568 -0.842194 4.05566e-22)
(41.7209 1.02631 -3.87848e-20)
(40.8164 -0.617707 0)
(41.6406 0.906033 0)
(41.1824 -0.345458 2.21095e-22)
(41.6668 0.755052 -3.11024e-20)
(41.5327 -0.0591862 -8.19162e-21)
(41.8117 0.621175 1.19744e-21)
(41.8711 0.208147 -3.49626e-21)
(42.0709 0.544289 1.48592e-20)
(42.2316 0.432094 -2.47062e-20)
(42.4317 0.553889 1.35789e-19)
(42.6487 0.594747 -3.58897e-20)
(42.8871 0.661828 4.85615e-20)
(43.1509 0.733311 1.67791e-20)
(43.4403 0.812419 -1.91835e-19)
(43.7589 0.901241 -1.45993e-19)
(44.1092 0.997827 5.27101e-21)
(44.494 1.10435 -4.20908e-20)
(44.9179 1.2182 0)
(45.3849 1.33913 -2.43528e-19)
(45.8994 1.46586 6.25614e-21)
(46.4662 1.59843 9.20948e-20)
(47.087 1.73929 7.24227e-20)
(47.7622 1.8928 1.99914e-19)
(48.4892 2.06471 0)
(49.2762 2.26016 1.64482e-19)
(50.1178 2.48382 9.67494e-19)
(50.9992 2.74472 9.47796e-19)
(51.9137 3.04846 -5.66226e-19)
(52.8761 3.38841 1.1482e-18)
(53.9059 3.75075 -9.35959e-19)
(55.0303 4.11398 -6.00766e-19)
(56.2578 4.46792 0)
(57.5709 4.8032 -1.77289e-18)
(58.9295 5.13089 -1.1769e-18)
(60.3188 5.45181 1.31487e-18)
(61.7481 5.76676 -1.65463e-18)
(63.2419 6.09031 2.02915e-18)
(64.8223 6.42384 0)
(66.5043 6.76622 1.54605e-18)
(68.2928 7.06727 0)
(70.1255 7.49567 2.30658e-18)
(70.8751 7.76117 -5.33959e-18)
(69.0119 8.01153 3.15003e-18)
(57.7156 7.03734 0)
(24.4115 1.64928 1.08399e-18)
(41.6422 0.801481 -8.24534e-24)
(40.1869 -0.787289 -8.42886e-24)
(41.944 0.798896 -1.20316e-20)
(40.4695 -0.686388 -3.37701e-23)
(41.7921 0.752047 -2.06203e-22)
(40.8183 -0.533612 -2.11054e-23)
(41.7145 0.65239 2.34922e-23)
(41.1903 -0.340738 2.05074e-23)
(41.7364 0.527122 4.03723e-21)
(41.5527 -0.140719 -3.31941e-22)
(41.8754 0.402936 -2.26592e-22)
(41.9134 0.05073 6.09234e-22)
(42.1333 0.315495 2.33873e-20)
(42.2935 0.209635 -3.78034e-20)
(42.5024 0.292199 -5.47881e-20)
(42.7269 0.309891 3.56813e-20)
(42.9744 0.347252 -4.71114e-20)
(43.2481 0.386888 -2.21976e-21)
(43.5482 0.430994 -2.90289e-21)
(43.8791 0.481743 0)
(44.2426 0.537717 -4.86665e-21)
(44.6416 0.601054 -3.28403e-21)
(45.0804 0.669606 3.67114e-21)
(45.5625 0.743109 0)
(46.0925 0.820323 0)
(46.6761 0.89893 2.41936e-19)
(47.3157 0.979176 0)
(48.0122 1.06192 -2.00197e-19)
(48.7681 1.15155 0)
(49.5842 1.24715 1.03041e-20)
(50.459 1.35353 -4.2533e-19)
(51.3758 1.47717 3.02287e-20)
(52.3177 1.62911 -6.65912e-19)
(53.2828 1.81253 5.95858e-20)
(54.2885 2.02552 4.19595e-19)
(55.3643 2.25558 6.74867e-19)
(56.5469 2.49448 -2.38101e-20)
(57.8515 2.73034 0)
(59.2457 2.9652 -1.80934e-20)
(60.6903 3.19874 2.22206e-20)
(62.1591 3.42102 0)
(63.6605 3.63816 -3.31993e-20)
(65.2203 3.85522 -1.68287e-19)
(66.835 4.08896 -1.36295e-18)
(68.4759 4.37721 -2.93876e-20)
(70.0162 4.75875 0)
(70.3237 5.01823 0)
(67.6945 5.16535 4.74704e-19)
(54.799 4.29351 -4.7085e-19)
(20.4981 -0.0912356 1.07882e-18)
(41.6641 0.569061 -9.60412e-21)
(40.1924 -0.577135 -1.29264e-20)
(41.9683 0.536199 -4.07268e-21)
(40.4602 -0.532064 -5.81972e-21)
(41.8284 0.47305 -2.4211e-21)
(40.8106 -0.441346 1.04661e-21)
(41.7494 0.384781 0)
(41.1809 -0.33231 0)
(41.7674 0.273046 5.70191e-21)
(41.5516 -0.21288 3.31914e-22)
(41.9 0.163269 -1.45179e-20)
(41.9241 -0.103487 -1.27421e-21)
(42.1537 0.0719971 -3.16077e-20)
(42.314 -0.0201887 4.57895e-20)
(42.5261 0.0191151 6.6548e-20)
(42.7534 0.0129715 0)
(43.0048 0.0192164 0)
(43.2827 0.0251696 2.21945e-21)
(43.5879 0.0325585 2.90247e-21)
(43.9241 0.0429088 -1.25617e-19)
(44.293 0.055298 4.86591e-21)
(44.6976 0.0716701 0)
(45.1412 0.0906507 0)
(45.6265 0.112725 -4.4509e-20)
(46.1577 0.137372 -2.19171e-19)
(46.7404 0.164324 7.12668e-20)
(47.381 0.191604 0)
(48.0857 0.219635 -2.13332e-19)
(48.8496 0.247901 0)
(49.6826 0.282039 -1.03019e-20)
(50.5839 0.321866 0)
(51.5455 0.374848 0)
(52.5505 0.449331 1.71997e-19)
(53.5897 0.550982 2.00498e-19)
(54.66 0.673259 0)
(55.7828 0.804934 0)
(56.9871 0.932038 2.38021e-20)
(58.2963 1.04692 0)
(59.6999 1.15685 1.80863e-20)
(61.1749 1.26996 -7.35268e-19)
(62.6924 1.37426 9.16592e-19)
(64.2367 1.46358 1.26547e-19)
(65.8144 1.52064 1.09895e-19)
(67.4663 1.54366 -1.51226e-18)
(69.2765 1.53296 -9.90409e-19)
(70.768 1.64527 5.53151e-18)
(70.9444 1.64589 -2.59353e-18)
(67.2767 1.90174 -3.41604e-18)
(52.3297 1.5741 2.79078e-18)
(16.8222 -1.30865 0)
(41.6557 0.338859 9.55182e-21)
(40.1753 -0.370055 -8.64922e-21)
(41.9751 0.262289 4.02554e-21)
(40.4455 -0.356196 -5.01292e-21)
(41.8337 0.194938 2.76263e-21)
(40.7913 -0.337395 -1.15637e-21)
(41.7471 0.110807 3.81856e-22)
(41.1575 -0.30895 -4.2333e-22)
(41.7525 0.0216938 -4.5094e-21)
(41.5386 -0.277562 -1.32463e-21)
(41.8759 -0.078823 1.56503e-20)
(41.9075 -0.252512 5.42888e-20)
(42.1272 -0.172687 -3.89931e-20)
(42.2911 -0.248516 -4.14814e-20)
(42.4997 -0.251842 -2.06294e-19)
(42.725 -0.282062 1.20826e-20)
(42.9753 -0.307538 -1.34872e-20)
(43.2523 -0.335608 1.52017e-19)
(43.5576 -0.365164 2.6602e-20)
(43.8944 -0.395549 9.5754e-20)
(44.2648 -0.427681 0)
(44.6721 -0.46034 0)
(45.1199 -0.494576 0)
(45.6112 -0.530342 0)
(46.1495 -0.568024 2.12235e-19)
(46.7382 -0.609481 -5.37157e-19)
(47.38 -0.654493 0)
(48.0765 -0.706414 6.38565e-19)
(48.8392 -0.763374 0)
(49.6671 -0.829985 0)
(50.5632 -0.902679 -8.36214e-19)
(51.5222 -0.979367 5.55285e-19)
(52.5289 -1.04616 -1.31169e-18)
(53.5631 -1.09123 3.6795e-19)
(54.6222 -1.10418 0)
(55.7124 -1.09367 0)
(56.8689 -1.07913 8.06845e-19)
(58.1294 -1.07979 -2.77948e-18)
(59.4937 -1.09783 0)
(60.9372 -1.11372 -2.1896e-18)
(62.4371 -1.12325 3.48179e-18)
(63.9859 -1.1208 -4.24445e-18)
(65.5805 -1.11886 2.47056e-18)
(67.1889 -1.12022 -3.25128e-18)
(68.8052 -1.04685 8.29825e-18)
(69.9134 -0.944137 -7.57506e-18)
(69.5446 -0.83493 5.61306e-18)
(64.9205 -0.630986 -1.28476e-17)
(48.2879 -0.578577 1.58476e-17)
(12.6924 -1.91975 -1.02938e-17)
(41.6135 0.111532 5.8812e-21)
(40.136 -0.155862 2.22357e-21)
(41.9606 0.00140739 0)
(40.4185 -0.178886 1.07208e-20)
(41.8145 -0.0773571 -2.19945e-20)
(40.7401 -0.221005 1.64551e-22)
(41.7258 -0.163844 0)
(41.1129 -0.267826 0)
(41.7139 -0.230357 -2.68357e-21)
(41.4901 -0.32849 2.98943e-21)
(41.8203 -0.307768 -7.97225e-20)
(41.8536 -0.395682 5.36515e-20)
(42.0598 -0.399529 7.2799e-20)
(42.2232 -0.469465 -1.00363e-19)
(42.4232 -0.507336 1.33786e-19)
(42.6423 -0.563494 2.42756e-20)
(42.8856 -0.61996 -2.57113e-19)
(43.155 -0.681266 -4.50712e-19)
(43.4523 -0.746845 0)
(43.7804 -0.816649 2.48578e-19)
(44.1412 -0.891581 3.18464e-19)
(44.5378 -0.971011 0)
(44.9729 -1.05524 -5.17407e-19)
(45.4489 -1.1434 0)
(45.9697 -1.23486 0)
(46.5407 -1.32923 5.35531e-19)
(47.1694 -1.42879 3.04044e-19)
(47.8643 -1.5313 8.0657e-19)
(48.6163 -1.64377 0)
(49.4392 -1.76017 0)
(50.3389 -1.88693 3.94019e-19)
(51.3173 -2.02181 4.90882e-19)
(52.366 -2.16172 1.94952e-18)
(53.4689 -2.29533 8.34556e-20)
(54.5983 -2.41322 1.01171e-19)
(55.7475 -2.50769 -2.45922e-18)
(56.9289 -2.58964 -1.46805e-19)
(58.1815 -2.68163 3.64313e-18)
(59.5294 -2.80308 2.25482e-18)
(60.9615 -2.94763 1.40215e-18)
(62.4461 -3.1071 3.56327e-18)
(63.965 -3.26898 3.56894e-19)
(65.5324 -3.43937 -4.83268e-18)
(67.1948 -3.63834 -3.00722e-18)
(69.0393 -3.8703 -9.12057e-18)
(70.0438 -3.97822 1.08281e-17)
(69.427 -4.0428 -5.10158e-18)
(63.4026 -3.5167 0)
(44.6574 -2.64683 0)
(8.87721 -2.13745 2.02917e-18)
(41.5501 -0.113229 -1.16666e-20)
(40.0819 0.0642747 -1.86992e-20)
(41.9141 -0.245049 -1.38266e-20)
(40.3731 -0.00691419 5.82625e-23)
(41.7617 -0.340966 5.42868e-20)
(40.6812 -0.0989983 -2.98574e-22)
(41.6695 -0.422324 0)
(41.0444 -0.212423 -2.24006e-20)
(41.6503 -0.473926 -2.78117e-21)
(41.406 -0.357092 -7.33556e-22)
(41.7412 -0.525591 1.65378e-19)
(41.7582 -0.513513 -1.00169e-19)
(41.9605 -0.606847 1.85699e-21)
(42.1125 -0.666538 8.87621e-20)
(42.303 -0.737491 0)
(42.5124 -0.818664 0)
(42.7456 -0.904204 1.98756e-19)
(43.0047 -0.997431 3.32363e-19)
(43.2922 -1.09821 0)
(43.6111 -1.20706 -2.47794e-19)
(43.9637 -1.32496 -3.17401e-19)
(44.3535 -1.45206 -1.06819e-19)
(44.7832 -1.5891 1.41326e-19)
(45.2555 -1.73601 4.54587e-19)
(45.7724 -1.89304 1.92225e-19)
(46.3351 -2.06099 2.74183e-19)
(46.9444 -2.23984 -9.64652e-19)
(47.6009 -2.43468 -8.27247e-19)
(48.3247 -2.63943 9.98767e-19)
(49.1106 -2.86264 -1.25195e-18)
(49.9632 -3.10034 0)
(50.888 -3.35307 0)
(51.886 -3.61476 5.53722e-20)
(52.947 -3.87816 -1.4719e-18)
(54.0609 -4.12858 1.88261e-18)
(55.2051 -4.356 3.58356e-18)
(56.3789 -4.56331 -1.39876e-18)
(57.6065 -4.7635 -3.5474e-18)
(58.9145 -4.97671 -4.41337e-18)
(60.3053 -5.20739 -2.83615e-18)
(61.762 -5.4532 -2.88866e-19)
(63.2566 -5.70115 3.85218e-18)
(64.7847 -5.94147 0)
(66.3296 -6.14531 2.96888e-18)
(67.8421 -6.23152 3.50268e-18)
(68.415 -6.24739 4.08564e-18)
(67.1026 -6.08724 1.54563e-17)
(59.9194 -5.46467 -5.77012e-18)
(39.3479 -4.07934 0)
(5.38773 -1.92965 0)
(41.4751 -0.335113 2.34394e-21)
(40.0201 0.287149 3.80339e-20)
(41.8383 -0.488397 1.36786e-20)
(40.3206 0.173081 5.56334e-20)
(41.6752 -0.595352 -3.2677e-20)
(40.6394 0.0325804 -2.86231e-22)
(41.5656 -0.660485 7.10242e-22)
(40.9882 -0.148927 1.89859e-20)
(41.5373 -0.687916 3.75059e-21)
(41.3218 -0.371802 7.26826e-21)
(41.6209 -0.714768 -7.88589e-20)
(41.6423 -0.607303 -1.17785e-20)
(41.8255 -0.785888 -1.35039e-19)
(41.9657 -0.830052 -1.77132e-19)
(42.1417 -0.933992 3.37396e-20)
(42.3348 -1.03607 -3.76361e-20)
(42.5502 -1.14683 0)
(42.7895 -1.26795 -2.64165e-19)
(43.0551 -1.39956 0)
(43.3498 -1.54231 0)
(43.6759 -1.69711 0)
(44.0367 -1.8642 -2.01085e-19)
(44.435 -2.04354 7.15745e-19)
(44.8743 -2.23441 -6.2334e-19)
(45.3593 -2.43657 0)
(45.8958 -2.65018 -2.58831e-19)
(46.4905 -2.87489 -8.94181e-19)
(47.149 -3.10864 -1.49111e-18)
(47.8583 -3.36093 -1.50675e-18)
(48.6349 -3.6268 1.28614e-18)
(49.485 -3.91359 -1.52729e-18)
(50.412 -4.22412 9.01377e-19)
(51.4157 -4.55719 2.30326e-18)
(52.491 -4.90464 0)
(53.6204 -5.25365 1.70229e-18)
(54.7892 -5.58863 -4.70111e-18)
(55.9854 -5.90155 -6.58487e-20)
(57.2221 -6.20626 3.50953e-18)
(58.5304 -6.52544 2.15337e-18)
(59.9172 -6.86882 0)
(61.3666 -7.23207 3.10708e-18)
(62.8476 -7.61025 -4.02305e-18)
(64.359 -8.00451 9.06481e-18)
(65.9701 -8.43784 0)
(67.6476 -8.86382 -1.33064e-17)
(68.1185 -9.08477 3.62288e-18)
(66.2605 -8.96686 -4.90976e-18)
(57.2705 -7.70493 -5.78027e-18)
(34.266 -5.27736 1.30158e-17)
(2.77691 -1.45497 6.78754e-20)
(41.3904 -0.555778 3.51709e-21)
(39.9534 0.515165 -4.44005e-20)
(41.7418 -0.73357 -4.17202e-20)
(40.274 0.370929 -1.18298e-19)
(41.5592 -0.842515 -8.30178e-20)
(40.6117 0.180199 1.82808e-21)
(41.423 -0.873764 -6.29442e-20)
(40.9482 -0.0780884 0)
(41.3848 -0.863353 -9.03809e-20)
(41.2472 -0.3808 7.00539e-20)
(41.4676 -0.862242 2.32449e-21)