/*--------------------------------*- C++ -*----------------------------------*\
| =========                 |                                                 |
| \\      /  F ield         | OpenFOAM: The Open Source CFD Toolbox           |
|  \\    /   O peration     | Version:  v1912                                 |
|   \\  /    A nd           | Website:  www.openfoam.com                      |
|    \\/     M anipulation  |                                                 |
\*---------------------------------------------------------------------------*/
FoamFile
{
    version     2.0;
    format      ascii;
    class       volScalarField;
    location    "0.07";
    object      p;
}
// * * * * * * * * * * * * * * * * * * * * * * * * * * * * * * * * * * * * * //

dimensions      [0 2 -2 0 0 0 0];


internalField   nonuniform List<scalar> 
6600
(
73.2497
68.6707
66.1996
64.7274
63.9065
63.5078
63.3937
63.4967
63.7837
64.3112
65.0409
66.0327
67.3215
68.8861
70.714
72.8197
75.2402
77.9971
81.029
84.3568
87.9351
91.6351
95.5167
99.6297
103.923
108.271
112.602
116.788
120.637
124.144
127.275
129.726
131.316
131.787
130.925
128.398
123.775
116.571
106.349
92.7025
75.0076
52.5926
24.8002
-9.16796
-49.9351
-98.5856
-155.395
-220.823
-297.421
-379.121
70.1442
65.3279
63.5097
61.9329
60.848
60.2111
59.7863
59.5224
59.5079
59.7421
60.1921
60.938
61.9389
63.0943
64.4367
66.0045
67.8706
70.0271
72.3741
74.9128
77.6835
80.6853
83.8653
87.1783
90.5116
93.7143
96.7231
99.5228
101.968
103.719
104.824
105.228
104.628
102.752
99.2799
93.8816
86.1802
75.6992
61.9081
44.4554
22.6305
-4.20542
-36.7104
-75.6748
-121.789
-176.02
-238.527
-309.394
-389.743
-473.35
65.8356
60.8361
59.8918
58.2542
56.9712
56.0978
55.4081
54.9135
54.7079
54.6648
54.8978
55.4
56.0867
56.92
57.8678
59.028
60.4283
62.0548
63.862
65.6925
67.5531
69.5005
71.6828
74.0547
76.4015
78.4717
80.1388
81.423
82.2674
82.3407
81.5592
79.8281
76.8143
72.3472
66.1198
57.6835
46.6799
32.6601
15.1349
-6.37327
-32.4606
-63.761
-100.88
-144.538
-195.436
-254.432
-321.648
-396.216
-477.258
-558.126
60.8609
55.6736
55.3316
53.4899
52.2293
51.1083
50.1574
49.544
49.1488
48.8695
48.9516
49.171
49.471
49.9166
50.5259
51.3479
52.3131
53.3257
54.4051
55.5132
56.7008
57.8889
59.0273
60.1708
61.2193
61.9741
62.29
62.0766
61.2738
59.5473
56.7312
52.7402
47.3069
40.1724
31.0211
19.4594
5.07166
-12.5475
-33.8774
-59.3961
-89.59
-125.069
-166.359
-214.046
-268.741
-331.193
-401.412
-477.74
-557.723
-633.333
55.4617
49.9179
49.9335
47.5727
46.3469
45.2333
44.1799
43.3936
42.7512
42.2787
42.0398
41.8916
41.8516
41.8984
42.1263
42.5098
42.9939
43.5027
43.9186
44.2478
44.4971
44.838
45.013
44.9307
44.5957
43.8875
42.6634
40.8066
38.1889
34.6257
29.8307
23.6024
15.6507
5.81164
-6.23914
-20.898
-38.5401
-59.6077
-84.4997
-113.659
-147.538
-186.561
-231.165
-281.807
-338.956
-403.26
-474.665
-551.101
-628.513
-697.085
49.3174
43.58
43.8814
40.7713
39.5334
38.3099
37.196
36.2714
35.4632
34.7651
34.1868
33.6038
33.1162
32.741
32.4946
32.2877
32.0487
31.7898
31.5079
31.1932
30.7205
30.0462
29.1431
27.8174
26.0311
23.8094
20.9979
17.446
12.997
7.44496
0.543098
-7.92723
-18.2315
-30.6854
-45.5435
-63.1337
-83.7927
-107.883
-135.834
-168
-204.708
-246.329
-293.158
-345.506
-403.701
-468.201
-539.041
-614.279
-687.786
-747.341
42.3617
36.6936
36.9761
33.3901
32.0937
30.5498
29.2299
28.1089
27.0074
26.0503
25.1494
24.2103
23.2929
22.4323
21.5766
20.6746
19.6974
18.61
17.4455
16.1728
14.7551
13.0279
10.9545
8.43617
5.31831
1.5403
-2.9285
-8.26521
-14.6174
-22.1464
-31.0398
-41.6521
-54.2775
-69.127
-86.4842
-106.608
-129.792
-156.382
-186.67
-220.985
-259.608
-302.731
-350.556
-403.295
-461.196
-524.648
-593.592
-665.93
-733.91
-782.838
34.6403
29.4744
29.2177
25.4554
24.0227
22.2318
20.6802
19.1849
17.6983
16.3484
14.9313
13.5278
12.1451
10.7175
9.15488
7.44857
5.6245
3.65571
1.54559
-0.717986
-3.22653
-6.16562
-9.51528
-13.3865
-17.8324
-23.0136
-29.0704
-36.0754
-44.2142
-53.6774
-64.6785
-77.3338
-91.9359
-108.829
-128.249
-150.447
-175.602
-203.941
-235.789
-271.357
-310.815
-354.333
-401.995
-453.922
-510.349
-571.686
-637.557
-705.432
-766.923
-804.311
26.4339
21.7048
20.4418
16.9639
15.433
13.2699
11.3431
9.46581
7.66559
5.83241
3.8554
1.85077
-0.233419
-2.43968
-4.74675
-7.2109
-9.86099
-12.731
-15.9243
-19.4662
-23.2479
-27.4515
-32.1037
-37.2932
-43.1548
-49.7803
-57.312
-65.963
-75.786
-86.9261
-99.5822
-114.056
-130.503
-149.071
-170.029
-193.606
-220.02
-249.447
-282.006
-317.896
-357.266
-400.165
-446.634
-496.729
-550.612
-608.732
-671.021
-733.704
-787.702
-814.224
16.8709
13.3484
10.8738
8.01012
6.24951
3.66819
1.24366
-1.04326
-3.2958
-5.66463
-8.14547
-10.7786
-13.6679
-16.7328
-19.9664
-23.3901
-27.0575
-30.9665
-35.1712
-39.8342
-44.9591
-50.4574
-56.474
-63.0567
-70.2717
-78.2944
-87.1996
-97.1559
-108.417
-121.135
-135.365
-151.215
-168.956
-188.77
-210.792
-235.23
-262.208
-291.86
-324.373
-359.802
-398.185
-439.574
-483.958
-531.359
-581.9
-635.889
-693.659
-751.081
-798.522
-816.823
5.79357
3.04235
0.885531
-1.62513
-3.61178
-6.28139
-8.92034
-11.6923
-14.682
-17.8316
-21.0524
-24.4166
-27.9702
-31.8292
-36.0262
-40.4983
-45.2446
-50.3442
-55.7931
-61.6422
-67.9623
-74.748
-82.1308
-90.0771
-98.69
-108.017
-118.269
-129.535
-141.968
-155.73
-171.034
-187.975
-206.629
-227.153
-249.693
-274.35
-301.271
-330.569
-362.263
-396.426
-433.113
-472.285
-513.881
-557.848
-604.244
-653.682
-705.595
-757.046
-799.54
-814.443
-5.50675
-8.53978
-9.44767
-12.3512
-14.4502
-17.089
-19.7069
-22.686
-26.1336
-30.0092
-34.1565
-38.5023
-43.0376
-47.8347
-53.0093
-58.5743
-64.5018
-70.8302
-77.5421
-84.5986
-92.1879
-100.251
-108.798
-117.942
-127.806
-138.399
-149.77
-162.06
-175.431
-190.092
-206.132
-223.656
-242.775
-263.541
-286.068
-310.473
-336.78
-365.035
-395.341
-427.692
-462.025
-498.313
-536.493
-576.462
-618.106
-662.059
-706.759
-749.684
-783.639
-798.174
-16.3944
-19.6949
-19.5642
-23.945
-25.6575
-28.7333
-31.6826
-34.9025
-38.5936
-42.7241
-47.3712
-52.6341
-58.3571
-64.3773
-70.5658
-77.1043
-84.211
-91.7709
-99.7898
-108.155
-116.846
-126.17
-136.027
-146.375
-157.298
-168.925
-181.329
-194.545
-208.651
-223.808
-240.16
-257.813
-276.892
-297.467
-319.548
-343.16
-368.364
-395.207
-423.624
-453.588
-485.108
-518.086
-552.361
-587.667
-624.224
-661.433
-697.322
-727.929
-746.865
-758.196
-27.8672
-31.1718
-30.1991
-34.3583
-35.8207
-39.7646
-43.2228
-47.2236
-51.6714
-56.3237
-61.3564
-67.0368
-73.5148
-80.6596
-88.2719
-96.2004
-104.463
-113.177
-122.34
-132.119
-142.233
-152.521
-163.385
-174.901
-186.899
-199.37
-212.459
-226.24
-240.794
-256.207
-272.644
-290.191
-308.872
-328.761
-349.952
-372.451
-396.211
-421.169
-447.349
-474.704
-503.067
-532.311
-562.268
-592.694
-623.432
-653.068
-679.529
-698.462
-704.715
-710.287
-39.2334
-41.8621
-40.1669
-44.3702
-45.0651
-49.7711
-53.1766
-58.1074
-63.5871
-69.3328
-75.4886
-82.0462
-89.0669
-96.723
-105.279
-114.656
-124.345
-134.324
-144.804
-155.687
-167.23
-179.148
-191.101
-203.428
-216.208
-229.442
-243.117
-257.314
-272.091
-287.5
-303.606
-320.553
-338.5
-357.473
-377.459
-398.452
-420.43
-443.401
-467.209
-491.692
-516.778
-542.266
-567.795
-593.585
-618.403
-640.625
-658.529
-669.851
-675.852
-677.512
-47.5137
-50.3427
-48.9629
-53.044
-53.0157
-59.2574
-61.9995
-67.8031
-73.6997
-80.3511
-87.7779
-95.8591
-104.196
-112.841
-122.207
-132.461
-143.524
-154.972
-166.903
-179.223
-191.682
-204.666
-218.109
-231.651
-245.265
-259.079
-273.133
-287.442
-302.057
-317.12
-332.775
-349.08
-366.028
-383.724
-402.261
-421.643
-441.806
-462.569
-483.878
-505.665
-527.669
-549.574
-571.318
-592.542
-612.227
-629.048
-641
-646.575
-652.794
-653.694
-53.8208
-57.6275
-53.437
-61.509
-59.7347
-67.9206
-69.9868
-76.9239
-82.777
-89.8786
-98.3112
-107.516
-117.197
-127.526
-138.324
-149.345
-161.32
-174.392
-187.721
-201.505
-215.778
-230.024
-244.383
-259.006
-273.643
-288.224
-302.688
-317.09
-331.551
-346.134
-360.865
-375.909
-391.567
-407.886
-424.845
-442.439
-460.616
-479.38
-498.523
-517.779
-537.026
-556.08
-574.602
-592.099
-607.772
-619.994
-627.329
-631.797
-633.896
-635.719
-57.642
-62.9897
-57.2347
-68.1728
-64.7642
-75.1849
-76.2139
-85.0174
-90.6436
-98.6399
-107.568
-117.155
-127.852
-139.768
-152.329
-165.164
-178.319
-192.426
-207.406
-222.543
-238.147
-254.237
-270.161
-285.907
-301.599
-316.975
-331.869
-346.291
-360.312
-374.073
-387.852
-401.8
-415.92
-430.46
-445.618
-461.453
-477.902
-494.714
-511.776
-529.116
-546.487
-562.993
-578.574
-593.005
-605.243
-613.862
-617.971
-621.616
-622.572
-623.905
-57.9918
-65.8506
-61.0033
-72.5665
-67.3751
-80.7079
-79.9843
-91.411
-96.3341
-106.028
-115.224
-125.171
-136.596
-149.406
-163.192
-177.909
-193.212
-208.755
-225.088
-242.27
-259.582
-277.052
-294.716
-312.051
-328.976
-345.311
-360.91
-375.659
-389.521
-402.63
-415.094
-427.155
-439.36
-451.98
-465.194
-479.069
-493.605
-508.839
-524.603
-540.558
-555.887
-570.167
-583.538
-595.14
-603.741
-608.473
-612.483
-613.804
-614.926
-615.536
-58.3788
-66.6592
-59.8919
-75.1656
-67.6703
-83.7868
-81.3305
-95.3463
-98.991
-110.952
-120.444
-131.414
-143.728
-157.022
-171.474
-187.635
-204.951
-222.56
-240.615
-259.489
-278.986
-298.525
-318.001
-337.199
-355.796
-373.517
-390.104
-405.323
-419.029
-431.387
-442.696
-453.236
-463.227
-473.293
-483.957
-495.624
-508.449
-522.203
-536.73
-551.51
-565.578
-578.538
-589.8
-598.093
-602.542
-605.063
-606.777
-608.257
-609.519
-609.899
-57.5878
-66.8048
-58.408
-75.2948
-66.7039
-84.5473
-80.4131
-96.9363
-98.9755
-113.103
-121.836
-134.766
-148.255
-162.124
-177.318
-194.417
-213.212
-233.045
-253.498
-274.458
-295.956
-317.907
-339.783
-361.277
-381.946
-401.492
-419.647
-435.993
-450.234
-462.321
-472.354
-480.64
-487.955
-494.995
-502.624
-511.483
-521.88
-534.053
-547.915
-562.231
-575.479
-587.274
-596.326
-601.161
-602.339
-603.16
-603.688
-605.085
-606.386
-606.837
-54.9385
-64.4747
-57.5563
-73.3631
-65.2909
-83.2795
-77.905
-96.0806
-96.96
-112.56
-120.275
-135.026
-148.911
-164.152
-180.863
-198.666
-218.06
-239.63
-262.492
-286.144
-310.285
-334.821
-359.563
-383.866
-407.306
-429.434
-449.779
-467.806
-482.967
-495.05
-504.247
-510.878
-515.278
-518.515
-521.827
-526.532
-533.852
-544.294
-557.369
-571.124
-584.808
-596.02
-602.518
-604.355
-604.791
-603.707
-603.561
-604.005
-604.639
-605.121
-51.846
-60.3632
-54.8387
-69.1301
-63.2053
-79.5474
-75.0018
-92.7035
-92.8969
-109.915
-116.374
-132.448
-145.829
-162.313
-180.634
-199.918
-220.224
-242.924
-267.805
-293.894
-320.99
-348.735
-376.805
-404.604
-431.547
-456.976
-480.312
-500.867
-518.096
-531.351
-540.324
-545.113
-546.282
-544.965
-542.866
-541.951
-543.708
-550.058
-561.479
-576.999
-592.66
-603.364
-607.943
-609.528
-608.239
-606.466
-604.554
-603.126
-602.387
-602.334
-48.5391
-55.7833
-51.2685
-63.6623
-59.5171
-73.6068
-71.8955
-86.5354
-88.4674
-104.874
-110.53
-127.521
-139.838
-157.646
-176.354
-196.822
-218.967
-242.951
-269.259
-297.725
-327.788
-358.998
-390.792
-422.678
-453.893
-483.632
-510.988
-535.272
-555.565
-570.793
-580.445
-584.345
-582.741
-576.693
-567.794
-558.381
-551.206
-550.78
-560.216
-577.395
-595.496
-607.59
-612.964
-613.035
-610.871
-607.604
-603.83
-600.498
-598.49
-597.673
-43.661
-51.0591
-47.3516
-58.0333
-54.8149
-67.024
-66.8618
-79.2177
-82.8222
-97.4143
-103.877
-120.441
-131.754
-150.214
-168.465
-189.811
-213.683
-239.235
-266.92
-297.331
-330.262
-365.007
-400.878
-437.352
-473.61
-508.589
-541.267
-570.517
-595.202
-614.185
-626.212
-630.568
-626.88
-615.74
-598.747
-579.174
-559.903
-547.584
-549.538
-566.293
-589.465
-605.372
-613.25
-613.418
-610.548
-606.079
-601.333
-596.702
-593.538
-591.717
-38.9703
-45.4506
-43.0188
-52.1847
-49.7798
-60.468
-60.6326
-71.7133
-75.8949
-88.1263
-96.1574
-111.417
-122.549
-140.941
-158.151
-179.671
-204.399
-231.33
-260.624
-293.028
-328.323
-366.378
-406.488
-448.017
-489.969
-531.228
-570.353
-606.025
-636.804
-661.063
-677.097
-683.653
-679.761
-665.057
-640.598
-608.488
-571.615
-540.352
-530.516
-542.665
-567.101
-592.147
-605.41
-610.632
-611.422
-608.712
-603.552
-597.646
-593.221
-590.455
-34.5302
-39.6038
-39.0934
-46.3272
-44.8587
-53.6845
-54.2745
-64.006
-68.0173
-79.2354
-87.0215
-100.724
-112.057
-129.697
-146.559
-167.55
-191.62
-219.454
-250.197
-284.256
-321.898
-362.96
-407.254
-453.951
-502.068
-550.335
-597.16
-640.819
-679.446
-711.041
-733.492
-744.877
-743.395
-727.632
-696.483
-651.034
-594.652
-541.03
-507.987
-506.323
-530.834
-567.459
-598.253
-617.317
-624.051
-621.232
-614.724
-606.952
-600.594
-596.68
-31.5582
-34.266
-34.2571
-40.623
-40.0714
-46.8524
-48.4127
-55.8081
-60.2714
-69.9719
-77.6228
-90.0126
-100.95
-116.921
-133.501
-154.327
-176.983
-204.499
-236.25
-271.564
-310.904
-354.675
-402.841
-454.704
-509.292
-565.214
-620.787
-674.009
-722.662
-763.867
-794.813
-813.413
-817.367
-803.992
-771.354
-716.354
-639.595
-554.614
-497.384
-479.264
-498.563
-543.477
-589.94
-622.428
-635.841
-635.745
-628.124
-618.913
-612.021
-609.103
-29.4412
-30.2755
-30.2195
-34.7739
-35.7029
-40.2198
-43.0224
-47.9516
-53.397
-60.7774
-67.8114
-79.1868
-89.7861
-104.141
-119.726
-139.729
-161.738
-188.104
-219.431
-255.619
-296.243
-341.883
-393.28
-450.208
-511.289
-575.18
-640.474
-704.884
-765.38
-818.572
-860.657
-889.842
-902.541
-895.293
-865.905
-803.169
-711.211
-609.025
-524.552
-483.66
-494.26
-541.894
-586.959
-619.73
-633.595
-632.836
-628.043
-621.303
-616.812
-615.816
-39.382
-30.5266
-26.7781
-29.7946
-32.1229
-34.1603
-38.5962
-39.8693
-47.1335
-53.0187
-59.54
-69.1939
-78.7267
-91.9054
-106.722
-125.306
-146.658
-172.01
-202.396
-238.479
-279.537
-326.353
-380.194
-441.499
-508.595
-580.593
-656.22
-733.009
-805.976
-872.861
-930.486
-972.584
-996.691
-998.612
-972.545
-912.655
-819.214
-717.647
-619.484
-565.466
-557.155
-579.143
-608.113
-625.575
-630.771
-626.7
-620.935
-615.963
-615.319
-616.838
74.2855
69.7388
67.2764
65.8324
65.0516
64.6784
64.6186
64.7793
65.1332
65.7328
66.5402
67.6148
69.0033
70.678
72.6415
74.8763
77.4819
80.4413
83.7448
87.3501
91.249
95.337
99.6484
104.233
109.005
113.907
118.876
123.817
128.571
132.956
137.093
140.818
143.795
145.828
146.658
145.937
143.437
138.76
131.372
120.806
106.548
87.9676
64.4594
35.381
-0.17186
-43.072
-93.6485
-151.6
-221.926
-295.75
71.1889
66.421
64.5976
63.0583
62.012
61.4134
61.0394
60.8463
60.8912
61.2067
61.742
62.565
63.6733
64.9605
66.4378
68.1526
70.2074
72.5736
75.1986
78.042
81.1577
84.5681
88.1435
91.9174
95.7608
99.5447
103.218
106.763
110.087
112.825
114.948
116.511
117.279
116.969
115.259
111.731
106.099
97.9721
86.9244
72.4266
53.9243
30.7355
2.22122
-32.1053
-73.3106
-122.2
-178.995
-243.336
-318.321
-395.734
66.8994
61.9584
61.0005
59.4163
58.1674
57.3532
56.7247
56.2885
56.1577
56.2007
56.5059
57.116
57.9289
58.8946
59.9869
61.3174
62.9262
64.8063
66.8821
69.0205
71.232
73.5971
76.2398
79.0733
81.9444
84.6475
87.0306
89.0716
90.765
91.909
92.2294
91.6728
89.9921
87.0164
82.5127
75.9303
67.0796
55.3414
40.3986
21.7627
-1.15318
-29.0024
-62.4097
-101.984
-148.44
-202.638
-264.884
-334.338
-411.101
-487.233
61.9505
56.8205
56.4733
54.6889
53.4784
52.4209
51.5558
50.9815
50.6735
50.4577
50.6559
50.9983
51.4373
52.0156
52.7886
53.8022
54.9953
56.2859
57.6693
59.1159
60.6528
62.2554
63.871
65.5359
67.1538
68.5838
69.6515
70.2155
70.3137
69.6572
68.0037
65.2555
61.1661
55.4786
47.9925
38.2938
25.9563
10.6078
-8.19321
-30.9793
-58.2516
-90.5842
-128.553
-172.737
-223.658
-282.126
-348.353
-420.799
-497.725
-570.306
56.5784
51.0827
51.1194
48.7897
47.6803
46.6334
45.6358
44.8931
44.3553
43.9412
43.8728
43.8193
43.9105
44.1408
44.5475
45.1559
45.9052
46.6999
47.414
48.1208
48.746
49.5255
50.2137
50.7016
50.9728
50.9399
50.4986
49.4929
47.791
45.2782
41.6878
36.7494
30.2083
21.846
11.3884
-1.51846
-17.1857
-36.0356
-58.5514
-85.1814
-116.386
-152.634
-194.402
-242.174
-296.364
-357.659
-426.165
-499.94
-575.936
-643.611
50.4671
44.7623
45.1233
41.9798
40.9951
39.7702
38.7081
37.8608
37.1528
36.544
36.1011
35.6594
35.3069
35.1169
35.0789
35.1127
35.1575
35.2312
35.2771
35.3361
35.3136
35.085
34.6912
33.9703
32.8557
31.3234
29.2818
26.6064
23.1084
18.6045
12.8832
5.74714
-3.14499
-14.0779
-27.2962
-43.1696
-62.0276
-84.1189
-109.878
-139.781
-174.192
-213.493
-258.05
-308.204
-364.267
-426.789
-495.91
-569.672
-643.536
-704.675
43.5465
37.8929
38.3145
34.6881
33.5585
32.0473
30.823
29.7902
28.7874
27.9319
27.1653
26.3855
25.6559
24.9733
24.3447
23.6976
22.9957
22.2381
21.4528
20.5785
19.6081
18.3999
16.8799
14.9566
12.5205
9.5023
5.83867
1.40122
-3.98143
-10.4664
-18.2693
-27.5974
-38.7804
-52.128
-67.8882
-86.3636
-107.84
-132.65
-161.104
-193.509
-230.205
-271.489
-317.627
-368.889
-425.507
-487.893
-556.25
-628.629
-698.815
-751.619
35.8616
30.6839
30.6169
26.8072
25.5269
23.7893
22.3208
20.9372
19.557
18.3297
17.0523
15.8082
14.625
13.4029
12.0821
10.6541
9.12439
7.48158
5.74773
3.91338
1.86315
-0.542383
-3.29356
-6.48525
-10.2372
-14.6576
-19.8873
-26.0059
-33.1602
-41.5493
-51.3766
-62.867
-76.2166
-91.6839
-109.57
-130.19
-153.812
-180.627
-210.92
-244.967
-282.976
-325.182
-371.775
-422.931
-478.903
-540.105
-606.303
-675.467
-740.579
-783.559
27.7292
22.9782
21.8518
18.3773
16.9778
14.8796
13.0442
11.2718
9.58949
7.89118
6.0629
4.22782
2.3421
0.360918
-1.69822
-3.87433
-6.1923
-8.69698
-11.4883
-14.5764
-17.8643
-21.503
-25.5735
-30.1109
-35.2418
-41.0776
-47.7649
-55.5029
-64.3856
-74.5336
-86.1099
-99.3193
-114.501
-131.855
-151.526
-173.756
-198.783
-226.874
-258.223
-292.988
-331.358
-373.46
-419.414
-469.379
-523.581
-582.493
-645.749
-710.46
-768.78
-800.843
18.1856
14.7327
12.2997
9.52356
7.83083
5.33863
3.00904
0.814121
-1.32635
-3.55373
-5.88113
-8.32268
-11.0038
-13.8271
-16.7935
-19.906
-23.2257
-26.7536
-30.5455
-34.7261
-39.3043
-44.2696
-49.6428
-55.546
-62.0694
-69.3293
-77.4038
-86.4743
-96.7376
-108.389
-121.622
-136.487
-153.072
-171.685
-192.551
-215.852
-241.759
-270.389
-301.943
-336.593
-374.418
-415.516
-459.956
-507.82
-559.298
-614.803
-674.225
-733.75
-784.617
-807.157
7.0807
4.45833
2.27714
-0.0755067
-1.99329
-4.59542
-7.14759
-9.81034
-12.686
-15.6949
-18.7368
-21.8992
-25.2473
-28.852
-32.7549
-36.9158
-41.3087
-45.986
-50.9648
-56.3373
-62.0794
-68.3167
-75.0996
-82.3669
-90.2228
-98.797
-108.228
-118.645
-130.181
-143.013
-157.262
-173.15
-190.859
-210.423
-231.984
-255.716
-281.755
-310.275
-341.368
-375.112
-411.615
-450.895
-492.959
-537.862
-585.758
-637.006
-691.402
-745.649
-790.754
-806.765
-4.13975
-7.19748
-8.13437
-10.7849
-12.7745
-15.3911
-17.9181
-20.7953
-24.1317
-27.8451
-31.8072
-35.9621
-40.2659
-44.7836
-49.6598
-54.8901
-60.4513
-66.3904
-72.6467
-79.1703
-86.1804
-93.5544
-101.508
-110.043
-119.202
-129.019
-139.59
-151.035
-163.55
-177.307
-192.5
-209.137
-227.306
-247.197
-268.899
-292.548
-318.243
-346.015
-375.975
-408.203
-442.684
-479.45
-518.503
-559.773
-603.219
-649.46
-697.622
-745.252
-784.508
-799.211
-15.0356
-18.3446
-18.4977
-22.1172
-23.9575
-27.0443
-29.9022
-33.024
-36.5873
-40.5539
-45.0189
-50.0763
-55.5539
-61.3142
-67.2009
-73.3877
-80.0908
-87.2057
-94.7657
-102.684
-110.884
-119.544
-128.687
-138.313
-148.527
-159.433
-171.058
-183.472
-196.781
-211.098
-226.587
-243.457
-261.81
-281.658
-303.074
-326.115
-350.841
-377.365
-405.696
-435.813
-467.75
-501.441
-536.809
-573.806
-612.449
-652.683
-692.943
-730.589
-758.86
-773.148
-26.4222
-29.6696
-28.9297
-32.9016
-34.2872
-38.1969
-41.5077
-45.4153
-49.7102
-54.1701
-59.0185
-64.4934
-70.7144
-77.5807
-84.879
-92.4751
-100.37
-108.674
-117.337
-126.518
-136.061
-145.793
-156.03
-166.851
-178.061
-189.779
-202.129
-215.151
-228.93
-243.616
-259.332
-276.135
-294.125
-313.431
-334.08
-356.124
-379.591
-404.427
-430.674
-458.349
-487.318
-517.505
-548.789
-580.943
-614.325
-647.742
-678.897
-703.36
-715.673
-726.668
-37.517
-39.8128
-39.4252
-43.2283
-43.671
-48.352
-51.5198
-56.3718
-61.6793
-67.2269
-73.2126
-79.5684
-86.3451
-93.7114
-101.951
-110.963
-120.229
-129.739
-139.785
-150.216
-161.173
-172.375
-183.593
-195.22
-207.325
-219.81
-232.734
-246.206
-260.256
-274.929
-290.362
-306.717
-324.109
-342.571
-362.159
-382.867
-404.643
-427.542
-451.508
-476.416
-502.24
-528.788
-555.702
-582.97
-610.34
-636.402
-659.119
-674.834
-679.72
-683.999
-46.0156
-48.7804
-47.6471
-51.9279
-51.6778
-57.933
-60.3462
-66.1614
-71.8454
-78.3448
-85.6211
-93.4626
-101.533
-109.918
-118.976
-128.873
-139.544
-150.545
-161.888
-173.586
-185.539
-198.042
-210.774
-223.476
-236.323
-249.394
-262.7
-276.301
-290.262
-304.713
-319.76
-335.46
-351.922
-369.258
-387.468
-406.576
-426.601
-447.391
-468.891
-491.085
-513.759
-536.714
-559.731
-582.649
-604.462
-624.045
-639.414
-648.831
-656.552
-658.094
-52.5005
-56.2769
-52.0572
-60.4472
-58.348
-66.6708
-68.3374
-75.4258
-80.9817
-88.0061
-96.2777
-105.253
-114.681
-124.746
-135.226
-145.864
-157.402
-170.067
-183.016
-196.208
-209.652
-223.2
-237.022
-250.951
-264.776
-278.526
-292.215
-305.888
-319.652
-333.594
-347.816
-362.485
-377.73
-393.649
-410.371
-427.87
-445.981
-464.696
-483.928
-503.472
-523.279
-543.209
-562.982
-581.857
-599.211
-613.993
-624.471
-629.34
-634.144
-636.276
-56.4561
-61.839
-55.9908
-67.1019
-63.4136
-74.0767
-74.6613
-83.6916
-88.9259
-96.9461
-105.625
-115.004
-125.524
-137.192
-149.418
-161.909
-174.685
-188.246
-202.609
-217.307
-232.401
-247.663
-262.754
-277.781
-292.69
-307.237
-321.315
-334.988
-348.345
-361.524
-374.764
-388.233
-402.106
-416.528
-431.526
-447.16
-463.503
-480.322
-497.405
-514.781
-532.34
-549.572
-566.164
-581.982
-595.877
-606.155
-611.859
-617.216
-618.509
-620.772
-56.9115
-64.8003
-59.9315
-71.5171
-66.1699
-79.7211
-78.5643
-90.2582
-94.6865
-104.537
-113.452
-123.215
-134.473
-147.045
-160.523
-174.887
-189.811
-204.981
-220.764
-237.162
-253.802
-270.674
-287.497
-303.959
-320.01
-335.48
-350.197
-364.116
-377.241
-389.74
-401.81
-413.649
-425.57
-437.972
-451.116
-465.058
-479.622
-494.709
-510.235
-525.95
-541.403
-556.255
-570.524
-583.589
-594.159
-600.841
-604.199
-606.763
-608.54
-609.874
-57.4539
-65.6497
-59.02
-74.1544
-66.6662
-82.7869
-80.1028
-94.2749
-97.5401
-109.694
-118.747
-129.695
-141.868
-154.873
-169.088
-184.967
-201.844
-218.912
-236.543
-254.941
-273.617
-292.29
-310.978
-329.262
-346.888
-363.623
-379.235
-393.559
-406.497
-418.179
-428.879
-439.042
-449.085
-459.309
-470.131
-481.822
-494.59
-508.309
-522.564
-537.033
-551.021
-564.059
-575.889
-585.974
-593.11
-596.751
-599.976
-600.721
-602.3
-603.002
-56.7782
-65.8332
-57.7795
-74.285
-65.9782
-83.557
-79.5046
-95.8812
-97.7057
-112.016
-120.273
-133.393
-146.592
-160.226
-175.221
-192.053
-210.519
-229.888
-249.677
-270.045
-290.976
-312.065
-332.996
-353.505
-373.108
-391.541
-408.569
-423.809
-437.068
-448.412
-458.031
-466.129
-473.344
-480.6
-488.556
-497.804
-508.535
-520.667
-534.148
-548.048
-561.05
-572.661
-582.366
-588.876
-591.872
-594.301
-595.429
-596.693
-598.04
-598.563
-54.1801
-63.639
-57.0794
-72.4434
-64.8403
-82.0245
-77.5554
-95.1338
-95.7351
-111.675
-118.917
-133.947
-147.402
-162.587
-179.155
-196.645
-215.647
-236.91
-259.353
-282.232
-305.571
-329.341
-353.113
-376.345
-398.6
-419.466
-438.506
-455.23
-469.253
-480.39
-488.854
-495.152
-499.75
-503.574
-507.806
-513.361
-521.007
-531.441
-544.239
-557.624
-570.775
-582.279
-589.422
-591.768
-592.482
-592.546
-593.217
-594.372
-595.491
-596.059
-51.1221
-59.537
-54.4765
-67.9993
-63.1738
-77.9614
-75.0508
-91.7543
-92.0794
-109.155
-115.109
-131.625
-144.523
-161.147
-179.243
-198.219
-218.258
-240.561
-264.999
-290.568
-316.89
-343.741
-370.756
-397.368
-423.012
-447.049
-468.889
-487.908
-503.668
-515.693
-523.786
-528.099
-529.352
-528.877
-528.091
-528.767
-532.234
-539.388
-550.497
-564.473
-579.363
-590.565
-596.059
-596.491
-595.141
-593.98
-593.503
-593.411
-593.675
-594.192
-48.0233
-54.9832
-50.9964
-62.5512
-59.4625
-72.2521
-71.8962
-85.8401
-88.1672
-103.893
-109.418
-126.966
-138.661
-156.925
-175.257
-195.472
-217.479
-241.188
-266.972
-294.837
-324.26
-354.563
-385.263
-415.857
-445.624
-473.775
-499.426
-521.896
-540.435
-554.093
-562.404
-565.524
-563.945
-558.649
-551.669
-545.199
-541.225
-542.329
-551.917
-567.677
-583.771
-595.774
-601.335
-602.659
-600.154
-597.258
-594.387
-592.246
-591.12
-590.954
-43.2339
-50.2981
-47.1753
-57.1352
-54.7073
-66.0584
-66.6217
-78.5258
-82.993
-96.5099
-103.197
-119.832
-130.713
-149.816
-167.556
-188.98
-212.671
-237.866
-265.24
-295.178
-327.374
-361.212
-395.987
-431.137
-465.8
-498.988
-529.712
-556.853
-579.333
-596.233
-606.631
-609.752
-605.513
-595.063
-580.322
-564.28
-549.661
-542.21
-546.894
-561.859
-581.77
-595.738
-603.83
-604.675
-602.388
-598.003
-593.232
-589.214
-586.673
-585.613
-38.6166
-44.7929
-42.7989
-51.4679
-49.5877
-59.7614
-60.4055
-71.1102
-75.832
-87.653
-95.8969
-110.574
-121.882
-140.778
-157.425
-179.299
-203.8
-230.377
-259.386
-291.429
-326.154
-363.368
-402.348
-442.488
-482.74
-522.032
-558.948
-592.167
-620.27
-641.904
-655.538
-660.265
-655.428
-640.975
-618.647
-591.1
-561.647
-538.215
-532.278
-544.853
-568.627
-587.027
-598.28
-601.953
-600.554
-596.722
-591.656
-586.375
-582.582
-580.276
-34.2623
-39.0362
-38.844
-45.8253
-44.6139
-53.1448
-54.0392
-63.5177
-67.9639
-78.9094
-86.7867
-100.316
-111.552
-129.557
-146.138
-167.57
-191.285
-219.053
-249.601
-283.271
-320.423
-360.726
-403.952
-449.2
-495.532
-541.625
-586
-626.888
-662.474
-690.903
-710.322
-718.952
-715.437
-699.065
-669.839
-629.073
-580.508
-536.077
-513.221
-515.154
-538.462
-568.638
-587.593
-599.864
-604.289
-602.267
-596.805
-590.131
-585.07
-581.866
-31.341
-33.7631
-34.001
-40.2741
-39.9748
-46.267
-48.1021
-55.3814
-60.2168
-69.8301
-77.2104
-90.1324
-100.537
-116.847
-133.289
-154.548
-176.944
-204.521
-236.13
-271.209
-310.149
-353.287
-400.451
-450.902
-503.637
-557.234
-610.083
-660.236
-705.425
-742.934
-769.984
-784.435
-785.269
-769.581
-737.216
-686.479
-618.345
-546.604
-494.061
-481.179
-501.503
-545.245
-581.195
-606.539
-617.459
-616.3
-609.956
-601.424
-594.328
-590.336
-29.1583
-29.9509
-29.8692
-34.4775
-35.5156
-39.7218
-42.8037
-47.4942
-53.294
-60.7405
-67.6826
-79.4694
-89.4414
-104.295
-119.654
-140.037
-161.985
-188.515
-219.74
-255.779
-296.151
-341.295
-391.78
-447.386
-506.695
-568.162
-630.423
-691.376
-748.079
-796.97
-834.343
-857.948
-866.05
-854.184
-822.893
-771.295
-679.647
-585.02
-507.473
-470.041
-474.513
-518.837
-571.789
-608.41
-624.545
-625.131
-619.276
-610.665
-604.577
-602.045
-39.0219
-30.2614
-26.5162
-29.5036
-31.9523
-33.6532
-38.5176
-39.4381
-47.0225
-52.9884
-59.5342
-69.4757
-78.8434
-92.0643
-106.803
-125.722
-147.223
-172.716
-203.063
-239.146
-280.097
-326.511
-379.466
-439.632
-505.107
-574.656
-646.933
-719.897
-788.876
-850.343
-902.126
-938.843
-955.281
-952.318
-921.367
-863.51
-771.93
-662.602
-571.246
-513.53
-511.335
-537.207
-574.991
-604.47
-618.247
-618.746
-615.384
-609.874
-606.6
-606.277
-31.6766
-21.9256
-24.0221
-25.8496
-27.7293
-29.1785
-33.5095
-33.9354
-40.8587
-46.282
-53.2369
-61.2697
-70.8607
-81.8829
-95.7504
-113.678
-134.826
-159.788
-189.629
-224.863
-266.633
-315.149
-370.624
-434.665
-507.438
-587.691
-672.944
-759.94
-845.008
-923.469
-991.128
-1044.38
-1077.54
-1087.13
-1064.83
-986.959
-882.897
-776.357
-696.883
-650.737
-623.93
-617.491
-621.007
-623.642
-619.502
-612.612
-605.843
-603.028
-603.922
-605.869
-25.4834
-19.6092
-22.1012
-23.7418
-25.6548
-27.1997
-31.3143
-34.0999
-38.0925
-43.2649
-49.2979
-56.7492
-66.3383
-77.5535
-91.4543
-109.081
-130.49
-156.775
-188.744
-227.092
-272.794
-325.965
-388.411
-461.738
-546.16
-639.226
-739.706
-844.247
-946.86
-1040.47
-1119.88
-1181.05
-1215.5
-1210.7
-1160.52
-1085.94
-995.023
-909.63
-841.281
-790.668
-751.496
-719.737
-692.009
-664.612
-638.811
-617.399
-603.914
-601.184
-603.871
-606.317
-18.7575
-18.4533
-19.99
-21.6456
-23.7757
-26.2105
-29.2985
-32.6849
-36.3174
-41.0424
-46.7999
-54.2465
-64.2944
-77.1432
-91.8942
-109.962
-133.077
-162.804
-199.35
-242.996
-294.683
-356.592
-430.961
-517.325
-615.369
-725.565
-845.725
-969.236
-1085.38
-1189.3
-1276.9
-1335.65
-1353.75
-1332.25
-1282.48
-1211.91
-1135.38
-1061.11
-992.557
-929.52
-873.354
-820.968
-770.83
-722.951
-677.692
-639.608
-615.105
-605.299
-607.822
-611.454
-14.8246
-16.2773
-17.4959
-19.0198
-20.9488
-23.2664
-25.8926
-29.0417
-33.1519
-38.0348
-43.7526
-51.183
-61.73
-75.5317
-91.831
-111.779
-137.505
-171.005
-212.788
-263.181
-323.62
-396.481
-482.989
-584.982
-704.706
-839.506
-981.16
-1119.31
-1248.58
-1364.28
-1453.89
-1500.72
-1508.16
-1482.75
-1431.38
-1363.53
-1288.36
-1210.03
-1132.28
-1056.36
-983.066
-913.562
-846.87
-784.19
-726.933
-677.39
-640.035
-619.193
-615.14
-621.361
-11.7236
-13.1634
-14.2223
-15.3906
-16.8278
-18.6488
-20.7957
-23.5028
-27.4012
-32.4292
-38.4248
-45.9279
-56.5967
-70.5187
-87.8739
-109.875
-138.615
-176.377
-224.31
-282.581
-352.221
-436.356
-539.093
-664.416
-811.433
-971.544
-1133.01
-1288.87
-1434.89
-1558.14
-1638.5
-1677.75
-1678.17
-1646.67
-1589.82
-1517.39
-1433.96
-1344.78
-1253.49
-1163.25
-1075.34
-991.412
-912.812
-840.283
-775.051
-718.795
-673.521
-642.581
-629.868
-641.749
-8.1332
-9.07545
-9.77828
-10.5435
-11.4677
-12.7244
-14.3347
-16.4354
-19.5971
-23.9943
-29.4773
-36.65
-47.3593
-61.4927
-79.5254
-103.029
-134.578
-176.536
-230.491
-296.667
-377.043
-477.077
-602.545
-755.946
-930.731
-1115.35
-1299.68
-1477.02
-1633.97
-1750.96
-1825.55
-1855.55
-1846.05
-1804.05
-1738.22
-1653.7
-1557.31
-1453.78
-1348.44
-1244.4
-1144.03
-1049.3
-961.532
-882.293
-812.496
-752.884
-704.431
-669.091
-652.676
-657.317
-4.07537
-4.39955
-4.52251
-4.57914
-4.69428
-5.01065
-5.83407
-7.04585
-9.10691
-12.5344
-17.2095
-23.5323
-33.5045
-47.5495
-65.7715
-89.9321
-123.575
-169.287
-229.397
-305.255
-400.642
-521.15
-672.709
-855.957
-1060.07
-1270.43
-1478.28
-1668.05
-1821.65
-1933.05
-1997.81
-2015.61
-1992.86
-1938.04
-1856.71
-1756.63
-1645.09
-1527.68
-1409.32
-1294.01
-1183.88
-1081.07
-987.353
-903.84
-831.516
-771.098
-723.264