/*--------------------------------*- C++ -*----------------------------------*\
| =========                 |                                                 |
| \\      /  F ield         | OpenFOAM: The Open Source CFD Toolbox           |
|  \\    /   O peration     | Version:  v1912                                 |
|   \\  /    A nd           | Website:  www.openfoam.com                      |
|    \\/     M anipulation  |                                                 |
\*---------------------------------------------------------------------------*/
FoamFile
{
    version     2.0;
    format      ascii;
    class       surfaceScalarField;
    location    "0.07";
    object      phi;
}
// * * * * * * * * * * * * * * * * * * * * * * * * * * * * * * * * * * * * * //

dimensions      [0 3 -1 0 0 0 0];
oriented        oriented;


internalField   nonuniform List<scalar> 
13060
(
0.00572214
0.988461
-0.994183
0.00754156
0.945662
-0.947481
0.00863702
0.899861
-0.900956
0.0097033
0.856461
-0.857527
0.0106487
0.815363
-0.816309
0.0114517
0.776926
-0.777729
0.012128
0.740106
-0.740783
0.0125854
0.70519
-0.705648
0.0129468
0.671819
-0.67218
0.013361
0.639743
-0.640157
0.0136931
0.609293
-0.609625
0.014035
0.580084
-0.580426
0.0143825
0.552163
-0.552511
0.014736
0.525492
-0.525845
0.0151205
0.500066
-0.50045
0.015422
0.475873
-0.476174
0.0155787
0.452804
-0.452961
0.0156121
0.430694
-0.430727
0.0155639
0.409673
-0.409625
0.0153852
0.38958
-0.389401
0.0150688
0.370503
-0.370187
0.0145951
0.352256
-0.351783
0.0141161
0.334778
-0.334299
0.0137507
0.318133
-0.317768
0.0134713
0.302398
-0.302119
0.0131573
0.287497
-0.287183
0.0127808
0.273245
-0.272869
0.0123615
0.2597
-0.259281
0.0119387
0.246787
-0.246364
0.011477
0.234579
-0.234118
0.0109602
0.223163
-0.222646
0.0103125
0.212419
-0.211772
0.00958243
0.202081
-0.201351
0.00886479
0.19226
-0.191542
0.00813892
0.18306
-0.182334
0.00736318
0.174375
-0.173599
0.0065145
0.166243
-0.165394
0.00562505
0.158619
-0.157729
0.00473674
0.151448
-0.150559
0.00385382
0.144715
-0.143832
0.00298226
0.138347
-0.137476
0.00212111
0.132373
-0.131512
0.00127413
0.126729
-0.125882
0.000463656
0.121474
-0.120663
-0.000352595
0.116548
-0.115731
-0.00108644
0.112057
-0.111323
-0.00181931
0.107354
-0.106621
-0.00237094
0.103745
-0.103194
-0.00205358
0.095148
-0.0954653
0.0657671
-0.0678206
0.00613364
0.982327
0.00749659
0.944299
0.0080741
0.899283
0.00846941
0.856066
0.00872333
0.815109
0.00868805
0.776961
0.00874863
0.740046
0.00878429
0.705155
0.00888299
0.67172
0.00904201
0.639584
0.00919528
0.60914
0.00940143
0.579878
0.00948619
0.552079
0.00946063
0.525517
0.00940249
0.500124
0.00935786
0.475918
0.00929935
0.452863
0.00918806
0.430805
0.00916215
0.409699
0.00925655
0.389486
0.00946077
0.370299
0.00963252
0.352084
0.00960463
0.334806
0.00931691
0.318421
0.00888113
0.302834
0.0084133
0.287965
0.00790955
0.273749
0.00733342
0.260276
0.00669563
0.247424
0.00598344
0.235292
0.00529517
0.223851
0.00474763
0.212967
0.00419228
0.202636
0.00354664
0.192905
0.00285822
0.183748
0.00216372
0.175069
0.00150919
0.166897
0.000877049
0.159251
0.000238719
0.152086
-0.000418559
0.145372
-0.00110392
0.139033
-0.00174526
0.133015
-0.00232994
0.127313
-0.00283758
0.121981
-0.00325806
0.116968
-0.00358838
0.112387
-0.00393122
0.107697
-0.00371388
0.103528
-0.00268534
0.0941194
0.0630817
0.00549494
0.976832
0.00639653
0.943398
0.00669077
0.898989
0.00647279
0.856284
0.006067
0.815515
0.00595628
0.777072
0.00595287
0.740049
0.00588426
0.705223
0.00601047
0.671594
0.0059685
0.639626
0.00598199
0.609126
0.00601054
0.579849
0.00600568
0.552084
0.00599964
0.525523
0.00591901
0.500205
0.00577136
0.476065
0.00560015
0.453034
0.00532796
0.431077
0.00492669
0.410101
0.00434656
0.390066
0.00368103
0.370965
0.00305019
0.352715
0.00255841
0.335298
0.00220676
0.318772
0.00190548
0.303135
0.00153877
0.288331
0.00113574
0.274152
0.000761675
0.26065
0.000440822
0.247745
0.000118958
0.235613
-0.000321909
0.224292
-0.000916112
0.213561
-0.00150423
0.203225
-0.0020081
0.193409
-0.00249525
0.184236
-0.00299399
0.175568
-0.00352739
0.167431
-0.0040544
0.159778
-0.00453603
0.152568
-0.0049681
0.145804
-0.00532506
0.13939
-0.00562286
0.133312
-0.00585563
0.127546
-0.00600389
0.122129
-0.00605317
0.117017
-0.0059464
0.112281
-0.00574898
0.1075
-0.00492368
0.102703
-0.00330367
0.0924994
0.059778
0.00446433
0.972368
0.00459341
0.943268
0.00442152
0.899161
0.00396187
0.856743
0.00348688
0.81599
0.00313697
0.777422
0.00274475
0.740441
0.00239137
0.705577
0.00223624
0.671749
0.00192507
0.639937
0.0016058
0.609445
0.00119665
0.580258
0.000815319
0.552465
0.000449919
0.525889
0.000110896
0.500544
-0.000220849
0.476397
-0.000565452
0.453378
-0.000863486
0.431375
-0.00102608
0.410263
-0.00104219
0.390082
-0.00107818
0.371001
-0.00126536
0.352902
-0.00162742
0.33566
-0.00211994
0.319265
-0.00261069
0.303626
-0.00307975
0.2888
-0.00358111
0.274653
-0.00415714
0.261226
-0.00482137
0.248409
-0.00549671
0.236289
-0.0060636
0.224859
-0.00647933
0.213977
-0.00689511
0.20364
-0.00737248
0.193886
-0.0078396
0.184703
-0.00826145
0.17599
-0.00859838
0.167768
-0.0088781
0.160057
-0.00911962
0.152809
-0.0092942
0.145979
-0.00939848
0.139494
-0.00941162
0.133325
-0.00931629
0.127451
-0.00909296
0.121906
-0.00872441
0.116649
-0.00819782
0.111754
-0.007597
0.106899
-0.0063641
0.10147
-0.00404592
0.0901813
0.0557321
0.00404407
0.968324
0.0030415
0.944271
0.00220851
0.899994
0.00163408
0.857318
0.00117942
0.816445
0.000800641
0.7778
0.000138684
0.741103
-0.000369352
0.706085
-0.000783905
0.672164
-0.00132921
0.640482
-0.00174989
0.609866
-0.00213393
0.580642
-0.00247546
0.552806
-0.00284823
0.526262
-0.00329397
0.500989
-0.0037348
0.476838
-0.00419945
0.453843
-0.00477956
0.431956
-0.00557249
0.411056
-0.00649697
0.391006
-0.00738998
0.371894
-0.00813307
0.353646
-0.00874555
0.336272
-0.00923501
0.319754
-0.0096962
0.304087
-0.0101402
0.289244
-0.0105392
0.275052
-0.0108545
0.261542
-0.0111005
0.248655
-0.0113181
0.236506
-0.0116665
0.225207
-0.0121415
0.214452
-0.0125527
0.204052
-0.01284
0.194174
-0.0130631
0.184926
-0.0132473
0.176174
-0.0134232
0.167943
-0.0135442
0.160178
-0.0135718
0.152837
-0.013502
0.145909
-0.0133049
0.139297
-0.012994
0.133015
-0.0125736
0.12703
-0.0120238
0.121356
-0.0113399
0.115965
-0.0104431
0.110857
-0.00942412
0.10588
-0.00773651
0.0997821
-0.00476772
0.0872125
0.0509644
0.00329814
0.965026
0.00209621
0.945473
0.000445956
0.901644
-0.000693789
0.858458
-0.00182707
0.817578
-0.00282852
0.778802
-0.00357207
0.741847
-0.00419191
0.706705
-0.00499073
0.672962
-0.00580063
0.641292
-0.00646874
0.610534
-0.00733331
0.581507
-0.00813216
0.553605
-0.00884054
0.52697
-0.00947717
0.501626
-0.0100862
0.477447
-0.0105865
0.454343
-0.0109522
0.432321
-0.0111985
0.411302
-0.0114272
0.391235
-0.0117351
0.372202
-0.0121859
0.354096
-0.0127332
0.33682
-0.0133479
0.320369
-0.0139213
0.304661
-0.0144655
0.289789
-0.0150111
0.275598
-0.0155991
0.26213
-0.016255
0.249311
-0.0168713
0.237123
-0.0172622
0.225598
-0.0174813
0.214671
-0.0176938
0.204264
-0.0179306
0.194411
-0.018118
0.185113
-0.0182132
0.176269
-0.0181723
0.167903
-0.0180326
0.160039
-0.0178051
0.152609
-0.0174657
0.14557
-0.017031
0.138862
-0.0164629
0.132446
-0.0157501
0.126318
-0.0149002
0.120507
-0.0139157
0.11498
-0.0127882
0.10973
-0.0114312
0.104523
-0.0093094
0.0976603
-0.00553769
0.0834408
0.0454267
0.00201015
0.963015
0.00102407
0.946459
-0.000905189
0.903574
-0.00220324
0.859756
-0.0037114
0.819086
-0.00502579
0.780116
-0.00612675
0.742948
-0.00706808
0.707646
-0.0080575
0.673952
-0.00885857
0.642093
-0.0095195
0.611195
-0.01026
0.582247
-0.0109868
0.554332
-0.011783
0.527766
-0.0125805
0.502423
-0.0133734
0.47824
-0.0142287
0.455199
-0.0152037
0.433296
-0.0163045
0.412403
-0.0174385
0.392369
-0.0183887
0.373152
-0.0192277
0.354935
-0.0199081
0.3375
-0.0204802
0.320941
-0.0210276
0.305208
-0.0215157
0.290277
-0.0219142
0.275996
-0.022156
0.262371
-0.022272
0.249427
-0.0223616
0.237212
-0.022575
0.225812
-0.022862
0.214958
-0.0230317
0.204434
-0.0230496
0.194429
-0.0229657
0.185029
-0.0228042
0.176108
-0.022598
0.167696
-0.02229
0.159731
-0.0218587
0.152178
-0.0213039
0.145015
-0.0205928
0.138151
-0.019755
0.131609
-0.0187981
0.125361
-0.0176994
0.119408
-0.016489
0.11377
-0.0152195
0.10846
-0.0134383
0.102742
-0.0108025
0.0950245
-0.00626526
0.0789035
0.0391615
0.000784677
0.962231
-0.00138466
0.948628
-0.00323869
0.905428
-0.00452251
0.861039
-0.00607822
0.820642
-0.00745441
0.781492
-0.00891832
0.744412
-0.0103095
0.709037
-0.0118139
0.675456
-0.013072
0.643351
-0.0144752
0.612598
-0.0156274
0.583399
-0.0166895
0.555394
-0.0177217
0.528798
-0.0186552
0.503357
-0.0195153
0.4791
-0.0202567
0.45594
-0.0208096
0.433849
-0.0212432
0.412837
-0.0216923
0.392818
-0.022208
0.373667
-0.0227801
0.355508
-0.0234344
0.338154
-0.0240933
0.3216
-0.0247036
0.305819
-0.0252862
0.290859
-0.0258556
0.276566
-0.0264589
0.262975
-0.0271088
0.250077
-0.0276388
0.237742
-0.0278613
0.226034
-0.0278447
0.214941
-0.0277949
0.204384
-0.0277369
0.19437
-0.0276031
0.184895
-0.0273499
0.175855
-0.0269296
0.167276
-0.0263876
0.159189
-0.0257262
0.151517
-0.0249295
0.144218
-0.0240321
0.137254
-0.0229995
0.130576
-0.0218279
0.124189
-0.0205472
0.118127
-0.0191287
0.112352
-0.0176295
0.106961
-0.0155093
0.100621
-0.0123873
0.0919025
-0.00699404
0.0735102
0.0321674
-0.000807954
0.963039
-0.00337482
0.951195
-0.0050369
0.90709
-0.00659394
0.862596
-0.00814536
0.822193
-0.00960375
0.782951
-0.0113348
0.746143
-0.0128674
0.71057
-0.0144029
0.676992
-0.0156943
0.644643
-0.0170758
0.61398
-0.0181743
0.584498
-0.0192471
0.556467
-0.0202603
0.529812
-0.0213036
0.5044
-0.0224384
0.480234
-0.0236731
0.457175
-0.0250121
0.435188
-0.0263536
0.414178
-0.027588
0.394053
-0.0287266
0.374806
-0.0296735
0.356454
-0.0304471
0.338928
-0.031123
0.322276
-0.0316967
0.306392
-0.0321634
0.291326
-0.0325201
0.276922
-0.03269
0.263145
-0.032655
0.250042
-0.0325847
0.237672
-0.0326445
0.226094
-0.0327396
0.215037
-0.0326596
0.204304
-0.0323959
0.194107
-0.0319998
0.184499
-0.0315003
0.175355
-0.0309368
0.166712
-0.0302484
0.1585
-0.0294296
0.150698
-0.0284873
0.143276
-0.0273809
0.136147
-0.026156
0.129351
-0.024838
0.122871
-0.0234058
0.116695
-0.0219339
0.11088
-0.0201003
0.105127
-0.0176806
0.0982016
-0.0139637
0.0881856
-0.00766989
0.0672165
0.0244975
-0.00132028
0.964359
-0.00266582
0.952541
-0.00517291
0.909597
-0.00828047
0.865704
-0.0108183
0.824731
-0.0129698
0.785102
-0.0148108
0.747984
-0.0165952
0.712354
-0.0182739
0.678671
-0.0198712
0.64624
-0.021437
0.615546
-0.0228907
0.585952
-0.0242799
0.557856
-0.0255719
0.531104
-0.0267892
0.505617
-0.0278354
0.481281
-0.0287393
0.458079
-0.0294698
0.435919
-0.0301431
0.414852
-0.0308862
0.394796
-0.0316174
0.375537
-0.0323341
0.357171
-0.0331236
0.339717
-0.0338549
0.323007
-0.0345469
0.307084
-0.035158
0.291937
-0.0357282
0.277493
-0.0363113
0.263728
-0.0369276
0.250658
-0.0373635
0.238108
-0.0374349
0.226165
-0.0372249
0.214827
-0.036954
0.204033
-0.0366336
0.193786
-0.0362084
0.184074
-0.0356473
0.174794
-0.0349108
0.165976
-0.0340552
0.157645
-0.0330716
0.149714
-0.0319402
0.142145
-0.0307207
0.134927
-0.0293854
0.128016
-0.027916
0.121402
-0.0263667
0.115146
-0.0248374
0.10935
-0.0227075
0.102998
-0.0199306
0.0954246
-0.0153535
0.0836084
-0.00816769
0.0600307
0.0163298
0.00335938
0.961
0.000714719
0.955185
-0.00384011
0.914152
-0.00838423
0.870248
-0.0119082
0.828255
-0.0147654
0.78796
-0.0168783
0.750097
-0.0188047
0.71428
-0.0203617
0.680227
-0.0217669
0.647645
-0.0229345
0.616713
-0.0242186
0.587236
-0.0255799
0.559217
-0.0269522
0.532476
-0.0283587
0.507024
-0.0298859
0.482808
-0.0314855
0.459678
-0.0331562
0.437589
-0.0347151
0.416411
-0.0360829
0.396163
-0.037432
0.376886
-0.0386096
0.358349
-0.0396024
0.34071
-0.0404214
0.323826
-0.0410792
0.307742
-0.0415986
0.292457
-0.0419587
0.277853
-0.0420834
0.263853
-0.0419344
0.25051
-0.0417248
0.237898
-0.0416329
0.226073
-0.0415602
0.214754
-0.0412944
0.203767
-0.040832
0.193324
-0.0402142
0.183456
-0.0394695
0.174049
-0.0386474
0.165154
-0.0376898
0.156687
-0.0366057
0.14863
-0.0354201
0.140959
-0.0340743
0.133582
-0.0326138
0.126555
-0.0311062
0.119894
-0.029601
0.11364
-0.0277701
0.10752
-0.025347
0.100574
-0.0219033
0.091981
-0.0160698
0.0777749
-0.0070125
0.0509734
0.00931734
0.0128013
0.948198
0.00431706
0.96367
-0.00185761
0.920326
-0.00722105
0.875612
-0.0113407
0.832375
-0.0149523
0.791571
-0.0175648
0.752709
-0.0198363
0.716552
-0.0218882
0.682279
-0.0238498
0.649607
-0.0256608
0.618524
-0.0274459
0.589021
-0.0291377
0.560909
-0.030785
0.534123
-0.0323556
0.508595
-0.03372
0.484172
-0.034951
0.460909
-0.0360138
0.438652
-0.0370861
0.417483
-0.0381857
0.397263
-0.0391363
0.377837
-0.0401056
0.359318
-0.0410842
0.341689
-0.0420555
0.324798
-0.0429238
0.30861
-0.0436454
0.293178
-0.0442783
0.278486
-0.0448985
0.264473
-0.0455059
0.251117
-0.0459184
0.238311
-0.0459307
0.226086
-0.0456177
0.214441
-0.0452038
0.203354
-0.0447156
0.192836
-0.0441096
0.18285
-0.0433665
0.173306
-0.0424459
0.164233
-0.0414128
0.155654
-0.0402563
0.147474
-0.0389378
0.13964
-0.0375417
0.132186
-0.0360614
0.125075
-0.0344741
0.118307
-0.032883
0.112049
-0.0307726
0.105409
-0.028062
0.0978637
-0.0236225
0.0875415
-0.0159116
0.070064
-0.00488835
0.0399501
0.00442898
0.0185522
0.929646
0.0048731
0.977349
-7.5266e-06
0.925207
-0.00545622
0.88106
-0.00948481
0.836403
-0.0132385
0.795325
-0.0163686
0.755839
-0.0187226
0.718906
-0.0206534
0.68421
-0.0227424
0.651696
-0.0248092
0.620591
-0.0267464
0.590958
-0.0286225
0.562785
-0.0304778
0.535979
-0.032362
0.510479
-0.0344107
0.486221
-0.0365121
0.463011
-0.0386364
0.440777
-0.0405159
0.419362
-0.0422686
0.399016
-0.044044
0.379612
-0.0455985
0.360873
-0.0468444
0.342935
-0.0478875
0.325841
-0.0487772
0.3095
-0.0495047
0.293906
-0.0500124
0.278993
-0.0502184
0.264679
-0.0500926
0.250991
-0.0498272
0.238045
-0.0496447
0.225903
-0.0494964
0.214292
-0.0491687
0.203026
-0.048629
0.192296
-0.0479172
0.182138
-0.0470675
0.172457
-0.0461409
0.163307
-0.0450713
0.154585
-0.0438664
0.146269
-0.0425866
0.138361
-0.0411575
0.130757
-0.0395941
0.123512
-0.0381625
0.116875
-0.0363807
0.110267
-0.0339192
0.102948
-0.0303642
0.0943086
-0.0246717
0.081849
-0.0155263
0.0609186
-0.00308186
0.0275056
0.00134712
0.0133498
0.916296
0.00254298
0.988155
0.00130152
0.926448
-0.0034038
0.885766
-0.00659683
0.839596
-0.0104365
0.799164
-0.0140466
0.759449
-0.0172735
0.722133
-0.0201894
0.687126
-0.0226892
0.654196
-0.0251973
0.623099
-0.0277535
0.593514
-0.0302302
0.565262
-0.0325568
0.538305
-0.0346613
0.512583
-0.0365232
0.488083
-0.0382143
0.464702
-0.0398036
0.442366
-0.0414836
0.421042
-0.0429981
0.40053
-0.0443331
0.380947
-0.0457218
0.362261
-0.0471385
0.344351
-0.0484801
0.327182
-0.0496521
0.310672
-0.0506186
0.294872
-0.0514415
0.279816
-0.0522074
0.265445
-0.0529445
0.251728
-0.0535006
0.238601
-0.0536298
0.226032
-0.0533426
0.214005
-0.0528956
0.202579
-0.0523742
0.191775
-0.0517345
0.181499
-0.0509574
0.171679
-0.0499972
0.162346
-0.0489307
0.153518
-0.0477622
0.1451
-0.0464152
0.137014
-0.0449821
0.129324
-0.0436105
0.12214
-0.0420986
0.115364
-0.0399353
0.108104
-0.0371066
0.100119
-0.0328033
0.0900054
-0.0254233
0.074469
-0.0139533
0.0494487
-0.00193671
0.0154891
-0.000589592
0.00492851
0.911368
-7.37153e-05
0.993158
0.00129835
0.925076
-0.00285717
0.889921
-0.00448801
0.841227
-0.00758261
0.802259
-0.0106506
0.762517
-0.0142132
0.725695
-0.0175323
0.690445
-0.0204842
0.657148
-0.0230755
0.62569
-0.0254456
0.595884
-0.0278484
0.567665
-0.0303814
0.540838
-0.0330409
0.515243
-0.0357724
0.490814
-0.038513
0.467443
-0.0411266
0.44498
-0.0435481
0.423464
-0.0459853
0.402967
-0.048326
0.383288
-0.0503171
0.364252
-0.0519787
0.346013
-0.0534856
0.328689
-0.0548064
0.311993
-0.0559258
0.295991
-0.0567769
0.280667
-0.057273
0.265941
-0.0573588
0.251814
-0.057194
0.238437
-0.0570457
0.225884
-0.0569614
0.213921
-0.0567228
0.20234
-0.0562406
0.191293
-0.0555703
0.180828
-0.0547609
0.17087
-0.0538853
0.161471
-0.0528637
0.152497
-0.0516732
0.14391
-0.0504312
0.135772
-0.0491517
0.128044
-0.0478772
0.120866
-0.0460998
0.113586
-0.043869
0.105873
-0.0406064
0.0968566
-0.0349833
0.0843822
-0.0252532
0.0647389
-0.010375
0.0345705
-0.0012716
0.00638566
-0.00186119
-0.00307079
0.914439
-0.00315719
0.993244
0.000588059
0.921331
-0.00359577
0.894105
-0.00433296
0.841964
-0.00705999
0.804986
-0.00916764
0.764625
-0.0123819
0.72891
-0.016001
0.694064
-0.0192651
0.660412
-0.022484
0.628909
-0.0256805
0.599081
-0.0285349
0.570519
-0.031162
0.543465
-0.0337711
0.517852
-0.0362008
0.493244
-0.0384712
0.469713
-0.0407963
0.447305
-0.0430767
0.425744
-0.0450968
0.404988
-0.0470915
0.385283
-0.0492488
0.36641
-0.0513478
0.348112
-0.0531967
0.330538
-0.0548407
0.313637
-0.0562675
0.297418
-0.0574864
0.281886
-0.0585733
0.267028
-0.0596165
0.252857
-0.060512
0.239332
-0.0609646
0.226337
-0.0608729
0.213829
-0.0605246
0.201992
-0.0601001
0.190868
-0.0595608
0.180289
-0.058888
0.170197
-0.0580176
0.1606
-0.0570324
0.151511
-0.056
0.142877
-0.0548205
0.134592
-0.0537286
0.126952
-0.0523317
0.119469
-0.0504415
0.111696
-0.0477761
0.103208
-0.0433262
0.0924067
-0.0352051
0.0762611
-0.0218281
0.0513619
-0.00611468
0.0188571
-0.000657495
0.000928474
-0.00251869
-0.00790394
0.922343
-0.00661701
0.991957
-0.00177026
0.916484
-0.00560123
0.897936
-0.00502851
0.841392
-0.00766278
0.80762
-0.00858466
0.765547
-0.0109963
0.731321
-0.0136287
0.696697
-0.0165125
0.663296
-0.0193933
0.63179
-0.0220899
0.601777
-0.0250065
0.573436
-0.0280292
0.546488
-0.031058
0.520881
-0.0342892
0.496475
-0.0376265
0.47305
-0.0408027
0.450481
-0.0439786
0.42892
-0.0472081
0.408217
-0.0501429
0.388217
-0.052708
0.368975
-0.0551172
0.350521
-0.0573613
0.332782
-0.0593594
0.315635
-0.0611144
0.299173
-0.0625638
0.283336
-0.0636203
0.268084
-0.0641645
0.253401
-0.0642786
0.239446
-0.0642931
0.226351
-0.0644093
0.213946
-0.0644058
0.201988
-0.0641119
0.190574
-0.0635957
0.179773
-0.0629308
0.169532
-0.0622269
0.159897
-0.061411
0.150695
-0.060388
0.141854
-0.059468
0.133672
-0.0583876
0.125872
-0.0568011
0.117882
-0.0546212
0.109516
-0.0510946
0.0996811
-0.044543
0.0858551
-0.0328479
0.064566
-0.0150327
0.0335467
-0.00306819
0.00689264
-4.52043e-05
-0.00209452
-0.00256389
-0.0101767
0.932519
-0.0092843
0.991065
-0.00467777
0.911878
-0.00796726
0.901225
-0.00635402
0.839779
-0.00902241
0.810289
-0.00908687
0.765611
-0.0112991
0.733534
-0.0128421
0.69824
-0.0155445
0.665998
-0.0185753
0.634821
-0.0215521
0.604754
-0.0246498
0.576534
-0.0277728
0.549611
-0.030681
0.523789
-0.0333513
0.499146
-0.0360792
0.475778
-0.0390375
0.453439
-0.041903
0.431786
-0.0446819
0.410996
-0.0476297
0.391165
-0.0506742
0.372019
-0.0535273
0.353374
-0.0561432
0.335398
-0.0586057
0.318097
-0.060805
0.301373
-0.0627071
0.285238
-0.0643906
0.269768
-0.0659669
0.254978
-0.0674186
0.240898
-0.0684172
0.22735
-0.0686942
0.214223
-0.06854
0.201834
-0.0682707
0.190305
-0.0678985
0.179401
-0.0674228
0.169056
-0.0667445
0.159218
-0.0659299
0.149881
-0.0652137
0.141138
-0.064394
0.132852
-0.0630824
0.12456
-0.0613351
0.116135
-0.0585475
0.106728
-0.0530966
0.0942303
-0.0426091
0.0753675
-0.0255139
0.0474707
-0.00803484
0.0160677
-0.00144773
0.000305528
7.76813e-05
-0.00361993
-0.00248621
-0.00896374
0.941483
-0.00727047
0.989372
-0.00542696
0.910034
-0.00836758
0.904166
-0.00583041
0.837241
-0.0089077
0.813366
-0.00865407
0.765358
-0.0103826
0.735262
-0.0107825
0.69864
-0.0130237
0.668239
-0.0153149
0.637112
-0.0176739
0.607113
-0.0203988
0.579259
-0.0235014
0.552714
-0.0268944
0.527182
-0.0306707
0.502922
-0.0344843
0.479592
-0.0380889
0.457044
-0.0419198
0.435616
-0.0458324
0.414909
-0.0494626
0.394795
-0.0528952
0.375452
-0.0562951
0.356774
-0.059497
0.3386
-0.0624476
0.321048
-0.0651315
0.304057
-0.067516
0.287622
-0.06949
0.271742
-0.0708261
0.256314
-0.0714933
0.241565
-0.0718467
0.227703
-0.0722713
0.214647
-0.0725998
0.202163
-0.0725633
0.190268
-0.0722321
0.17907
-0.0717087
0.168533
-0.0711876
0.158697
-0.0706988
0.149392
-0.0700147
0.140454
-0.0689818
0.13182
-0.0676212
0.123199
-0.0653986
0.113912
-0.0608431
0.102173
-0.0517758
0.0851629
-0.0362286
0.0598204
-0.0153742
0.0266163
-0.00365214
0.00434562
-0.000328105
-0.00301851
0.000233825
-0.00418186
-0.00225239
-0.00545344
0.946936
-0.00274818
0.986666
-0.00473094
0.912017
-0.00700987
0.906445
-0.00504516
0.835277
-0.00879826
0.817119
-0.00840196
0.764961
-0.0104571
0.737317
-0.0103903
0.698573
-0.0124206
0.67027
-0.0142719
0.638963
-0.017048
0.609889
-0.01968
0.58189
-0.0224331
0.555467
-0.025318
0.530066
-0.0281796
0.505784
-0.031386
0.482798
-0.0349645
0.460622
-0.0384233
0.439075
-0.0420127
0.418498
-0.0459013
0.398684
-0.0498278
0.379378
-0.0536452
0.360592
-0.0573896
0.342344
-0.0609459
0.324604
-0.0642077
0.307318
-0.0671255
0.29054
-0.0697446
0.274361
-0.0721522
0.258721
-0.0744264
0.243839
-0.0762217
0.229498
-0.0770969
0.215522
-0.0772621
0.202328
-0.0771572
0.190163
-0.0768866
0.178799
-0.0765494
0.168196
-0.0760698
0.158218
-0.0753812
0.148703
-0.0746283
0.139701
-0.0736864
0.130878
-0.0718909
0.121404
-0.0681044
0.110126
-0.060442
0.0945106
-0.0462549
0.0709758
-0.0239917
0.0375571
-0.00692371
0.00954832
-0.00116417
-0.00141391
0.000318161
-0.00450084
0.000326289
-0.00418998
-0.0019261
-0.00174649
0.948683
0.00178778
0.983132
-0.00199497
0.9158
-0.00277853
0.907229
-0.0022275
0.834726
-0.00543108
0.820323
-0.00568789
0.765218
-0.0082306
0.73986
-0.00790348
0.698246
-0.00920289
0.671569
-0.0102649
0.640025
-0.0126527
0.612277
-0.0151555
0.584393
-0.0177821
0.558093
-0.021175
0.533459
-0.025138
0.509747
-0.0289631
0.486623
-0.0329404
0.4646
-0.0373946
0.443529
-0.0419325
0.423036
-0.0463715
0.403123
-0.0508654
0.383872
-0.0553673
0.365094
-0.0597321
0.346709
-0.0639146
0.328787
-0.0678452
0.311249
-0.0714898
0.294185
-0.0746898
0.277561
-0.0772613
0.261293
-0.0789196
0.245498
-0.0799163
0.230495
-0.0808138
0.21642
-0.0815679
0.203082
-0.0818375
0.190433
-0.0816585
0.17862
-0.0811244
0.167662
-0.0805736
0.157667
-0.0800732
0.148203
-0.079366
0.138994
-0.0779185
0.12943
-0.0748492
0.118335
-0.0685511
0.103828
-0.055566
0.0815255
-0.0333343
0.0487441
-0.0122461
0.016469
-0.00358509
0.000887266
-0.000870315
-0.00412869
-6.9095e-05
-0.00530206
0.000109341
-0.00436842
-0.00181675
-9.22731e-05
0.948775
0.00279159
0.980248
-0.00165709
0.920249
-0.000206734
0.905778
-0.000943781
0.835463
-0.00315839
0.822537
-0.00360651
0.765666
-0.00666319
0.742917
-0.00714606
0.698729
-0.00883937
0.673262
-0.00923583
0.640422
-0.0116752
0.614717
-0.0138985
0.586617
-0.0162185
0.560413
-0.018652
0.535893
-0.0214172
0.512512
-0.0248687
0.490075
-0.028776
0.468507
-0.0327755
0.447529
-0.0370666
0.427327
-0.0417268
0.407783
-0.0465569
0.388702
-0.0515316
0.370068
-0.0565288
0.351706
-0.0614267
0.333685
-0.0660539
0.315876
-0.070376
0.298507
-0.074312
0.281497
-0.077901
0.264882
-0.0813086
0.248905
-0.0842737
0.23346
-0.0861497
0.218296
-0.0868964
0.203829
-0.0870162
0.190553
-0.0867389
0.178343
-0.0863415
0.167264
-0.0857685
0.157094
-0.084866
0.1473
-0.0834353
0.137563
-0.0809103
0.126905
-0.0758128
0.113237
-0.0640997
0.0921145
-0.0427998
0.0602256
-0.0189527
0.024897
-0.00679307
0.00430941
-0.00283533
-0.00307048
-0.00149596
-0.00546807
-0.000874027
-0.00592399
-0.000348504
-0.00489394
-0.00216526
0.00190457
0.946871
0.00366645
0.978486
0.000197383
0.923718
0.00265451
0.903321
0.00141358
0.836704
0.000602196
0.823349
-0.000160589
0.766429
-0.00226026
0.745016
-0.00379944
0.700268
-0.00521699
0.67468
-0.00527735
0.640482
-0.00684013
0.616279
-0.00883052
0.588607
-0.0118115
0.563394
-0.0149864
0.539068
-0.0183647
0.51589
-0.0219012
0.493611
-0.0259524
0.472558
-0.0306846
0.452261
-0.0356894
0.432332
-0.0409169
0.413011
-0.0463577
0.394143
-0.0519368
0.375647
-0.0575932
0.357363
-0.0631935
0.339285
-0.0687091
0.321392
-0.0739607
0.303758
-0.078776
0.286312
-0.08299
0.269096
-0.0861923
0.252108
-0.0883337
0.235602
-0.0900998
0.220062
-0.0914543
0.205183
-0.0921756
0.191274
-0.0921535
0.178321
-0.0913974
0.166508
-0.090261
0.155957
-0.0887224
0.145762
-0.0863918
0.135233
-0.0819491
0.122462
-0.0716935
0.102982
-0.052283
0.072704
-0.0261358
0.0340785
-0.0096547
0.00841593
-0.00381535
-0.00152994
-0.0019374
-0.00494842
-0.00121154
-0.00619393
-0.000841218
-0.00629431
-0.00044628
-0.00528888
-0.00261154
0.00244538
0.944425
0.00379721
0.977134
0.0013745
0.92614
0.00408381
0.900612
0.00201507
0.838772
0.00182203
0.823542
0.00132012
0.766931
-0.000958801
0.747295
-0.00236755
0.701677
-0.00461135
0.676924
-0.00511924
0.64099
-0.00658509
0.617745
-0.00787837
0.5899
-0.00985198
0.565368
-0.0117818
0.540998
-0.0144818
0.51859
-0.0179267
0.497056
-0.0215936
0.476225
-0.0256412
0.456309
-0.0302639
0.436955
-0.03541
0.418157
-0.0410718
0.399805
-0.0470562
0.381632
-0.0533273
0.363634
-0.0596911
0.345649
-0.0659941
0.327695
-0.0720487
0.309813
-0.0777433
0.292007
-0.0830281
0.274381
-0.0878697
0.256949
-0.0924762
0.240208
-0.0959405
0.223526
-0.0979566
0.207199
-0.0986321
0.19195
-0.0982443
0.177933
-0.0973896
0.165654
-0.0958373
0.154405
-0.0930312
0.142956
-0.0880689
0.13027
-0.0782937
0.112687
-0.0605203
0.0852082
-0.0336468
0.0458305
-0.0118365
0.0122682
-0.00255619
-0.000864382
0.00115704
-0.00524317
0.00219818
-0.00598956
0.00190554
-0.00590129
0.000992265
-0.00538103
0.000188192
-0.00448481
-0.00242334
0.00185269
0.942573
0.00292353
0.976064
0.00211445
0.926949
0.00488833
0.897838
0.00344365
0.840217
0.00431881
0.822667
0.00397549
0.767274
0.00250269
0.748768
0.000909304
0.70327
-0.00124228
0.679075
-0.00194077
0.641689
-0.0025685
0.618373
-0.00363737
0.590969
-0.00653158
0.568262
-0.00903451
0.5435
-0.0115956
0.521151
-0.0148273
0.500288
-0.0187121
0.48011
-0.0231312
0.460728
-0.0281984
0.442022
-0.0337202
0.423678
-0.0396644
0.405749
-0.0461175
0.388085
-0.0529247
0.370441
-0.0600001
0.352724
-0.0672239
0.334919
-0.0744145
0.317003
-0.0813297
0.298922
-0.0876294
0.28068
-0.0930654
0.262385
-0.0970505
0.244193
-0.100175
0.22665
-0.102692
0.209717
-0.104329
0.193586
-0.104847
0.178451
-0.103529
0.164336
-0.100592
0.151467
-0.0949278
0.137292
-0.08482
0.120163
-0.0678433
0.0957105
-0.0411995
0.0585644
-0.0129311
0.017562
0.00204405
-0.00270697
0.00836174
-0.00718207
0.0103107
-0.0071921
0.00985247
-0.00553136
0.00774611
-0.00379494
0.00472887
-0.00236379
0.00171015
-0.00146609
-0.000713195
0.0018941
0.940678
0.00268116
0.975277
0.000971978
0.928659
0.0036885
0.895121
0.00196007
0.841945
0.00321852
0.821408
0.00289038
0.767603
0.00257048
0.749088
0.00172136
0.704119
-0.000382562
0.681179
-0.00220975
0.643516
-0.0033506
0.619514
-0.00314741
0.590766
-0.00397619
0.569091
-0.00570709
0.545231
-0.00814433
0.523588
-0.0107302
0.502874
-0.0139022
0.483282
-0.0176017
0.464427
-0.0219418
0.446362
-0.0270636
0.4288
-0.0329565
0.411642
-0.0395073
0.394636
-0.0467545
0.377688
-0.0544402
0.36041
-0.0623688
0.342847
-0.0703402
0.324975
-0.0782146
0.306796
-0.0856883
0.288154
-0.0926922
0.269389
-0.0992905
0.250792
-0.104889
0.232249
-0.109056
0.213884
-0.111603
0.196133
-0.1117
0.178548
-0.109873
0.162509
-0.10467
0.146265
-0.0948998
0.127522
-0.0773788
0.102641
-0.048522
0.0668538
-0.0141373
0.0241797
0.0082896
-0.00486483
0.016518
-0.0109354
0.0185081
-0.00917209
0.0175311
-0.00621512
0.0150295
-0.00302981
0.011413
-0.000178416
0.00709269
0.00195653
0.00279132
0.00283529
0.00207812
0.000488305
0.94019
0.00165536
0.974109
0.00147269
0.928841
0.0036394
0.892955
0.00254459
0.84304
0.0042592
0.819694
0.00356805
0.768294
0.00368285
0.748973
0.00308448
0.704717
0.00208487
0.682179
0.000624424
0.644976
-0.000742117
0.62088
-0.00147916
0.591503
-0.00286432
0.570476
-0.004109
0.546476
-0.00590159
0.525381
-0.00839108
0.505363
-0.0114843
0.486375
-0.0153029
0.468246
-0.0198429
0.450902
-0.0250208
0.433978
-0.0308939
0.417515
-0.037592
0.401334
-0.04498
0.385076
-0.0531238
0.368554
-0.061868
0.351591
-0.0709942
0.334101
-0.0801447
0.315947
-0.0891071
0.297116
-0.0973771
0.277659
-0.104203
0.257618
-0.109744
0.237789
-0.114007
0.218147
-0.116896
0.199022
-0.118456
0.180107
-0.116418
0.160472
-0.108694
0.13854
-0.0910466
0.109875
-0.0592552
0.0708501
-0.0200253
0.0276238
0.00742443
-0.00327004
0.0184006
-0.015841
0.0210484
-0.0135832
0.020606
-0.00872969
0.0182937
-0.00390283
0.0151783
8.56018e-05
0.0112113
0.00378857
0.00695934
0.0062085
0.00271052
0.00708412
0.00478864
-2.50176e-05
0.940215
0.00109979
0.972985
-0.000950113
0.930891
0.000814016
0.89119
-0.000676433
0.844531
0.00186945
0.817148
0.00124963
0.768913
0.00218603
0.748037
0.00203494
0.704868
0.000999525
0.683214
-0.000726165
0.646702
-0.00149981
0.621654
-0.00131271
0.591316
-0.00138864
0.570552
-0.00250698
0.547594
-0.00387854
0.526753
-0.00520787
0.506693
-0.00733546
0.488503
-0.0100779
0.470988
-0.01357
0.454394
-0.0180955
0.438504
-0.0235455
0.422965
-0.0299199
0.407708
-0.0373614
0.392518
-0.0458192
0.377012
-0.0550108
0.360783
-0.0646856
0.343776
-0.0746767
0.325938
-0.0847874
0.307227
-0.0947164
0.287588
-0.104281
0.267182
-0.112585
0.246093
-0.119647
0.225209
-0.124401
0.203776
-0.12582
0.181527
-0.120062
0.154713
-0.104611
0.123089
-0.0704748
0.0757388
-0.0330001
0.0333754
-0.00866667
0.00329038
-0.000293729
-0.011643
0.000773602
-0.0169084
0.00259304
-0.0154026
0.00433824
-0.0104749
0.00470882
-0.00427341
0.0038692
0.000925231
0.00291385
0.00474392
0.00156397
0.00755839
0.00033541
0.00831267
0.00512405
-0.000319627
0.940535
-0.000500104
0.973165
-0.000188501
0.93058
0.000788412
0.890214
-0.00116658
0.846486
0.0010322
0.814949
-0.000455233
0.770401
0.0018129
0.745769
0.00170551
0.704976
0.00217468
0.682745
0.00106202
0.647815
-0.00105356
0.62377
-0.00199667
0.592259
-0.00174601
0.570301
-0.00185714
0.547706
-0.00300939
0.527905
-0.00437579
0.508059
-0.00616372
0.490291
-0.00875167
0.473576
-0.0122046
0.457847
-0.0163987
0.442698
-0.0215011
0.428068
-0.0275074
0.413715
-0.0347082
0.399719
-0.0433374
0.385641
-0.0530667
0.370512
-0.0636768
0.354386
-0.0749851
0.337246
-0.0868006
0.319042
-0.0985707
0.299358
-0.108944
0.277555
-0.117956