/*--------------------------------*- C++ -*----------------------------------*\
| =========                 |                                                 |
| \\      /  F ield         | OpenFOAM: The Open Source CFD Toolbox           |
|  \\    /   O peration     | Version:  v1912                                 |
|   \\  /    A nd           | Website:  www.openfoam.com                      |
|    \\/     M anipulation  |                                                 |
\*---------------------------------------------------------------------------*/
FoamFile
{
    version     2.0;
    format      ascii;
    class       volVectorField;
    location    "0.07";
    object      U;
}
// * * * * * * * * * * * * * * * * * * * * * * * * * * * * * * * * * * * * * //

dimensions      [0 1 -1 0 0 0 0];


internalField   nonuniform List<vector> 
6600
(
(39.8451 -0.0473045 0)
(40.0872 -0.054042 1.24237e-20)
(40.1467 0.0276357 8.71548e-19)
(40.1926 0.125294 0)
(40.2311 0.213064 1.06063e-18)
(40.2628 0.326203 3.57662e-20)
(40.3105 0.439656 -3.96702e-20)
(40.3606 0.573887 -4.41476e-20)
(40.404 0.723732 9.09173e-19)
(40.4447 0.876703 -1.16002e-19)
(40.478 1.04321 0)
(40.5002 1.2159 -1.15837e-18)
(40.5041 1.40186 0)
(40.5031 1.5967 -1.28599e-18)
(40.5075 1.80086 -1.81664e-18)
(40.5201 2.01416 -9.84142e-19)
(40.5152 2.25098 0)
(40.4825 2.51181 0)
(40.4451 2.79841 1.6986e-18)
(40.3954 3.10755 -1.55752e-18)
(40.3484 3.44816 -2.34927e-19)
(40.2669 3.82757 -8.89625e-19)
(40.1488 4.23841 -1.67113e-18)
(40.0278 4.66556 3.78525e-19)
(39.9291 5.10664 1.40753e-18)
(39.8239 5.57567 0)
(39.6827 6.07629 3.53108e-18)
(39.537 6.60695 0)
(39.3481 7.17977 -1.79312e-18)
(39.098 7.77065 -1.17521e-18)
(38.9315 8.40205 -3.51519e-19)
(38.8001 9.12164 -1.48241e-18)
(38.604 9.90487 -6.32641e-19)
(38.3679 10.7179 1.26108e-18)
(38.1543 11.5852 3.71594e-19)
(37.9318 12.5163 1.46883e-18)
(37.7211 13.5176 2.95539e-18)
(37.5241 14.6222 2.79157e-18)
(37.3416 15.7934 -2.03669e-18)
(37.186 17.0487 2.13613e-18)
(37.0363 18.3827 1.09784e-18)
(36.9127 19.8078 0)
(36.8246 21.3268 -4.80067e-20)
(36.7619 22.9568 2.20636e-19)
(36.7379 24.6653 0)
(36.8208 26.5627 -1.24517e-18)
(36.8757 28.3839 -3.11348e-18)
(37.3009 30.6735 0)
(35.745 31.6849 0)
(26.0411 24.9172 -2.16478e-18)
(39.7306 -0.0475921 7.32218e-19)
(40.1682 -0.0890499 -7.52909e-19)
(40.2226 0.0251497 0)
(40.2599 0.13953 -1.4118e-20)
(40.2991 0.241323 9.78572e-19)
(40.3398 0.376522 3.40287e-20)
(40.3784 0.530056 -2.15162e-22)
(40.4381 0.682693 -4.17448e-20)
(40.4878 0.843839 0)
(40.5267 1.01359 -1.59638e-18)
(40.5727 1.18957 -5.75914e-20)
(40.6144 1.37012 9.93346e-19)
(40.6489 1.57205 1.0461e-18)
(40.6682 1.79209 7.57926e-19)
(40.6742 2.02992 -2.14066e-21)
(40.6796 2.28133 1.06442e-19)
(40.6848 2.54677 -9.30988e-19)
(40.6673 2.83339 0)
(40.6287 3.14036 0)
(40.561 3.45079 1.59026e-18)
(40.4874 3.75919 2.20038e-19)
(40.4291 4.07728 -1.17238e-18)
(40.3764 4.42531 -1.06862e-18)
(40.303 4.82548 -1.23165e-18)
(40.2013 5.27943 -1.02652e-18)
(40.0891 5.77435 -4.35605e-19)
(39.9622 6.29801 -5.83857e-19)
(39.828 6.85267 -5.73564e-19)
(39.7024 7.45868 1.77931e-18)
(39.6286 8.15256 3.06844e-19)
(39.5055 8.86587 -2.27886e-18)
(39.3135 9.58678 2.0923e-18)
(39.1292 10.3398 1.40976e-18)
(38.9894 11.1642 -1.85672e-18)
(38.8387 12.0616 3.95066e-19)
(38.6873 13.0136 -1.50227e-18)
(38.5493 14.0287 9.95231e-19)
(38.4381 15.0949 -1.02743e-18)
(38.3557 16.2485 -4.98623e-19)
(38.302 17.4736 -5.39482e-19)
(38.2748 18.7758 0)
(38.2605 20.1598 0)
(38.2779 21.6038 3.94335e-19)
(38.3748 23.161 -5.17585e-19)
(38.5759 24.7978 -2.18713e-18)
(38.8542 26.5857 1.28576e-18)
(39.1186 28.3407 4.90814e-18)
(39.614 30.3884 0)
(38.0511 30.9493 -5.45001e-18)
(27.0931 23.7611 2.40641e-18)
(39.6347 -0.0237184 -5.01704e-20)
(40.271 -0.0837609 7.68037e-19)
(40.2999 0.0605403 7.66896e-19)
(40.3442 0.16667 -3.35956e-22)
(40.3917 0.30795 -1.14538e-19)
(40.4386 0.451439 3.22126e-20)
(40.4946 0.593603 0)
(40.5549 0.748652 0)
(40.6109 0.90891 0)
(40.6639 1.07914 8.43107e-19)
(40.7022 1.2546 -5.29407e-20)
(40.7293 1.44992 -9.99982e-19)
(40.7522 1.65512 -5.56167e-19)
(40.7819 1.86987 1.13005e-18)
(40.8116 2.10218 6.40601e-19)
(40.8357 2.35454 -9.82339e-20)
(40.8512 2.62719 1.87329e-18)
(40.8532 2.91989 -9.39778e-19)
(40.8433 3.24122 -1.07195e-18)
(40.829 3.60013 0)
(40.8136 3.99864 -6.9742e-19)
(40.7526 4.42544 9.38196e-19)
(40.6714 4.86137 1.08142e-18)
(40.5961 5.31068 1.24717e-18)
(40.5413 5.77453 1.1034e-18)
(40.4773 6.27505 -1.11455e-19)
(40.3916 6.81484 -2.11504e-19)
(40.3073 7.38408 -6.0811e-19)
(40.1673 7.97006 -2.70094e-19)
(39.9911 8.58089 1.06438e-18)
(39.9216 9.25204 3.34355e-19)
(39.8897 10.0057 0)
(39.7854 10.815 -1.53975e-18)
(39.6505 11.634 3.8726e-19)
(39.5594 12.5052 8.17932e-19)
(39.474 13.435 9.58832e-19)
(39.4193 14.4223 -7.15802e-19)
(39.3909 15.4967 -3.35466e-19)
(39.3968 16.621 4.52419e-19)
(39.4501 17.8183 0)
(39.534 19.0701 7.10113e-19)
(39.6752 20.3905 0)
(39.8839 21.7825 0)
(40.1453 23.2517 2.28404e-18)
(40.4787 24.7723 1.38499e-18)
(40.9377 26.4448 -2.82594e-18)
(41.4348 28.1175 -2.96269e-18)
(42.0523 29.8762 0)
(40.2953 30.0036 -3.36742e-18)
(27.7829 22.254 3.66315e-18)
(39.5899 -0.0043764 -6.86988e-19)
(40.3747 -0.0517449 5.21963e-21)
(40.3965 0.123349 -7.8721e-19)
(40.4512 0.226653 -7.37489e-19)
(40.4942 0.366708 -8.86996e-19)
(40.5513 0.51988 -4.27038e-19)
(40.6159 0.671457 -3.22023e-20)
(40.6731 0.833875 0)
(40.7249 1.01166 5.77923e-19)
(40.7884 1.18611 6.80097e-19)
(40.8438 1.38244 -4.75483e-20)
(40.8894 1.60003 -5.3337e-20)
(40.9382 1.8302 -4.48552e-19)
(40.9691 2.07419 -1.47567e-19)
(40.9955 2.33042 -1.89633e-20)
(41.0164 2.6054 -8.59111e-20)
(41.035 2.89586 -3.30162e-20)
(41.0458 3.20968 1.05877e-18)
(41.0301 3.53123 1.4084e-18)
(40.9954 3.85632 0)
(40.9655 4.18462 1.30786e-19)
(40.962 4.55399 0)
(40.9452 4.96469 0)
(40.9038 5.41505 -2.37602e-19)
(40.8393 5.90379 7.25553e-19)
(40.7901 6.41565 8.32049e-19)
(40.72 6.9641 -1.6786e-19)
(40.6471 7.54851 8.63103e-19)
(40.61 8.1869 0)
(40.6047 8.90049 0)
(40.549 9.63307 3.58915e-19)
(40.4477 10.366 0)
(40.3803 11.1311 4.13083e-19)
(40.36 11.9687 4.51486e-19)
(40.3369 12.8615 -8.41136e-19)
(40.33 13.8007 -6.28114e-19)
(40.3529 14.7901 -7.0021e-20)
(40.4235 15.8139 3.5561e-20)
(40.5363 16.9105 3.64209e-19)
(40.6999 18.0561 4.24378e-19)
(40.9126 19.2568 -2.14271e-18)
(41.1579 20.513 0)
(41.4542 21.7967 0)
(41.8533 23.1563 -1.45571e-18)
(42.3872 24.5638 -2.73077e-18)
(43.0003 26.076 -7.39595e-19)
(43.6445 27.6553 -4.79531e-18)
(44.1247 29.0732 5.29643e-18)
(41.9914 28.7016 7.46873e-18)
(27.9882 20.4301 0)
(39.5499 -0.0118803 -2.23497e-21)
(40.5211 -0.033137 5.67129e-19)
(40.5322 0.182236 6.18972e-19)
(40.583 0.281189 7.64249e-19)
(40.6309 0.424729 0)
(40.6873 0.563273 5.88663e-20)
(40.76 0.718298 0)
(40.8296 0.894982 -3.05941e-20)
(40.8912 1.06423 -1.04112e-18)
(40.9487 1.25444 -6.77774e-19)
(41.0008 1.45702 4.12103e-20)
(41.0449 1.66999 4.55452e-20)
(41.0811 1.88946 -5.06596e-20)
(41.1353 2.12456 -4.94551e-19)
(41.177 2.38052 -1.06614e-18)
(41.2131 2.6572 7.06538e-20)
(41.2462 2.95099 -1.26677e-18)
(41.2769 3.26825 9.05676e-20)
(41.3065 3.62487 -4.52832e-19)
(41.321 4.02392 -2.2741e-19)
(41.3301 4.46225 7.06584e-19)
(41.3059 4.90332 0)
(41.275 5.3693 0)
(41.2628 5.85306 -2.87816e-19)
(41.2601 6.34885 -4.66543e-19)
(41.2491 6.88324 4.38712e-19)
(41.2308 7.44326 -1.1841e-19)
(41.2127 8.03304 0)
(41.1273 8.62674 1.23576e-19)
(41.0347 9.24227 -1.37649e-19)
(41.062 9.92454 -3.64794e-19)
(41.1364 10.6901 -1.64611e-19)
(41.1387 11.5041 1.01845e-19)
(41.1205 12.3139 2.59966e-21)
(41.168 13.1722 -2.89279e-21)
(41.2326 14.0713 0)
(41.3419 15.0153 1.34871e-19)
(41.4931 16.0316 1.39324e-18)
(41.6962 17.0752 -7.18163e-19)
(41.9584 18.175 -9.53085e-19)
(42.265 19.3001 1.44972e-18)
(42.6473 20.4602 0)
(43.1164 21.6656 0)
(43.6518 22.9056 -2.59755e-18)
(44.2632 24.156 5.68912e-18)
(44.9949 25.5217 1.53052e-18)
(45.7548 26.9684 2.91439e-18)
(46.1954 28.055 -6.3496e-18)
(43.4676 27.218 5.32978e-19)
(27.6814 18.3204 -1.00635e-17)
(39.4725 0.0140346 5.02065e-19)
(40.6979 -0.0277815 -8.23036e-20)
(40.6921 0.210872 -6.31225e-19)
(40.7519 0.323802 2.77196e-19)
(40.7921 0.493197 0)
(40.8286 0.654726 3.96606e-19)
(40.8982 0.824414 -1.21065e-20)
(40.9658 0.98886 -3.67497e-19)
(41.0306 1.17728 4.96616e-19)
(41.1069 1.37749 0)
(41.1872 1.59574 3.32986e-20)
(41.257 1.8274 2.1584e-19)
(41.3212 2.07947 -3.14613e-19)
(41.3662 2.34392 4.46126e-20)
(41.4193 2.62026 4.99095e-19)
(41.4568 2.91483 -5.44407e-20)
(41.4944 3.22684 4.28117e-19)
(41.5297 3.54693 -6.66295e-20)
(41.5514 3.87192 7.29249e-20)
(41.5577 4.20822 1.64233e-19)
(41.5673 4.57028 2.18532e-19)
(41.5951 4.97612 1.27548e-21)
(41.619 5.41114 1.04018e-19)
(41.6206 5.89535 3.7847e-19)
(41.6228 6.40907 0)
(41.6385 6.94234 -3.362e-19)
(41.6344 7.51245 5.30693e-20)
(41.6298 8.11705 -1.24183e-20)
(41.6965 8.78046 -9.29289e-20)
(41.7694 9.50121 3.88801e-20)
(41.7955 10.2329 1.31062e-19)
(41.7917 10.9521 7.43187e-20)
(41.8397 11.7022 0)
(41.9467 12.5243 0)
(42.0574 13.3815 0)
(42.198 14.2773 0)
(42.3813 15.2019 1.26776e-18)
(42.6244 16.1418 -2.40417e-18)
(42.9199 17.1379 0)
(43.2771 18.1532 4.23825e-20)
(43.6957 19.2007 -2.82678e-19)
(44.1535 20.2763 -3.78826e-18)
(44.6618 21.3423 2.08793e-18)
(45.2735 22.4434 0)
(46.0293 23.5603 2.09872e-18)
(46.8425 24.7434 -7.61827e-18)
(47.6411 26.0452 5.43744e-18)
(47.7148 26.7671 4.05434e-18)
(44.1593 25.3706 1.5001e-17)
(26.6932 15.9233 -1.12294e-17)
(39.4384 0.0744424 -4.95371e-19)
(40.8291 -0.0248763 -8.8955e-19)
(40.8545 0.253742 7.40673e-21)
(40.9619 0.332374 -2.78628e-19)
(40.9826 0.519937 2.25339e-19)
(41.0493 0.692327 -8.64943e-21)
(41.1062 0.856638 2.6677e-19)
(41.1667 1.04566 3.68969e-19)
(41.243 1.23218 2.95609e-19)
(41.3144 1.43496 -1.1759e-20)
(41.3751 1.64529 -1.5827e-19)
(41.4501 1.86199 -8.82831e-20)
(41.5149 2.09827 2.76178e-19)
(41.5845 2.35623 0)
(41.6429 2.63497 0)
(41.7145 2.93412 1.70693e-20)
(41.7795 3.2516 2.71617e-19)
(41.8466 3.60484 0)
(41.913 3.99015 1.96749e-20)
(41.963 4.41823 -2.69419e-19)
(42.0139 4.8661 -2.44418e-19)
(42.0461 5.32731 -3.26526e-22)
(42.0696 5.81026 0)
(42.1162 6.29929 -1.46177e-19)
(42.158 6.82169 -7.56326e-21)
(42.2153 7.3753 8.43786e-21)
(42.2708 7.94832 0)
(42.3264 8.54577 0)
(42.3003 9.13558 -1.35136e-19)
(42.3017 9.74506 2.23589e-19)
(42.42 10.4119 -2.91783e-19)
(42.6032 11.1631 1.77125e-19)
(42.7139 11.9477 3.34954e-19)
(42.8116 12.718 -8.44103e-19)
(42.9942 13.5301 1.57133e-18)
(43.1987 14.3616 5.99497e-19)
(43.4537 15.223 -8.90711e-19)
(43.7599 16.1351 1.22714e-18)
(44.1248 17.0484 -2.14795e-18)
(44.5497 18 5.6859e-20)
(45.0177 18.9481 -3.39116e-19)
(45.5626 19.8972 1.95278e-18)
(46.2005 20.8686 2.98672e-18)
(46.909 21.8397 -3.31788e-18)
(47.6726 22.7872 2.10811e-18)
(48.5349 23.8394 0)
(49.2591 24.9163 3.27412e-18)
(49.141 25.294 4.945e-18)
(44.4734 23.3904 -1.03346e-17)
(24.9594 13.2978 -3.19053e-18)
(39.4576 0.100364 3.26828e-19)
(40.947 0.00290148 4.00134e-19)
(40.9925 0.354904 3.10215e-21)
(41.1034 0.361989 -1.59492e-19)
(41.1738 0.586465 -3.9948e-19)
(41.2392 0.725838 1.7123e-19)
(41.304 0.907811 -4.30492e-19)
(41.3769 1.10301 8.23867e-20)
(41.4647 1.31087 -2.86135e-19)
(41.5404 1.53468 -8.59521e-20)
(41.6248 1.77722 2.48228e-19)
(41.7087 2.02451 -1.81585e-19)
(41.7993 2.2868 -5.76959e-20)
(41.8686 2.56353 1.02634e-21)
(41.9543 2.85829 -5.85662e-21)
(42.0219 3.16514 7.55814e-22)
(42.094 3.49068 -9.60576e-20)
(42.169 3.82298 0)
(42.2397 4.16377 0)
(42.2974 4.51779 0)
(42.3311 4.89955 6.97049e-21)
(42.4081 5.32283 -3.01156e-20)
(42.4798 5.76963 1.31018e-19)
(42.5366 6.26681 2.34716e-20)
(42.6057 6.77832 0)
(42.6797 7.32642 0)
(42.7498 7.90304 -2.44846e-19)
(42.818 8.51401 1.27577e-19)
(42.9897 9.18421 -1.07878e-19)
(43.1525 9.90374 1.28638e-19)
(43.2723 10.6214 5.22234e-20)
(43.3588 11.3016 5.90788e-19)
(43.5082 12.006 -2.76054e-19)
(43.7311 12.7722 1.09697e-18)
(43.9573 13.5572 -7.32877e-19)
(44.2193 14.3723 -3.56353e-19)
(44.5316 15.1939 1.7778e-19)
(44.9042 16.0103 9.29036e-19)
(45.3295 16.8642 9.34689e-19)
(45.8145 17.7058 1.49087e-18)
(46.3614 18.5574 -3.18588e-19)
(46.9467 19.4178 2.75382e-18)
(47.5684 20.2376 -3.06309e-18)
(48.2739 21.0559 0)
(49.1243 21.8784 0)
(50.0351 22.8201 0)
(50.5634 23.5411 0)
(49.8169 23.633 0)
(43.6865 21.0711 -5.95191e-18)
(22.3171 10.498 9.7724e-18)
(39.5254 0.126948 -3.27715e-19)
(41.1174 0.0629254 0)
(41.1664 0.394452 0)
(41.2587 0.39819 1.61792e-19)
(41.314 0.628547 1.63235e-19)
(41.4223 0.756219 -1.69044e-19)
(41.512 0.938717 1.70017e-19)
(41.6072 1.13836 -8.26494e-20)
(41.6924 1.34044 1.40136e-20)
(41.7957 1.56203 8.14324e-20)
(41.8838 1.78885 -7.57648e-20)
(41.9669 2.03037 -4.12016e-20)
(42.0504 2.27975 2.44382e-20)
(42.1557 2.54673 0)
(42.2481 2.82707 1.34891e-20)
(42.3588 3.13881 6.58559e-21)
(42.4591 3.47878 2.63777e-21)
(42.5594 3.85148 1.8936e-19)
(42.6676 4.26581 -2.59885e-19)
(42.7813 4.70546 0)
(42.8971 5.15884 0)
(42.9924 5.63733 -2.56865e-19)
(43.0812 6.12623 1.72711e-19)
(43.1824 6.62415 4.12288e-19)
(43.2797 7.15803 1.06818e-19)
(43.4036 7.70137 -4.4731e-19)
(43.5254 8.27189 6.60589e-19)
(43.6493 8.85826 -7.49034e-19)
(43.6894 9.43203 3.99576e-19)
(43.7689 10.0125 -3.49225e-19)
(43.9687 10.6443 2.08273e-19)
(44.2506 11.3602 -6.47651e-19)
(44.4599 12.0886 4.91416e-19)
(44.6492 12.7895 -7.99857e-19)
(44.9332 13.5189 0)
(45.2416 14.2497 -8.00463e-19)
(45.5979 14.9972 -8.11642e-19)
(46.0056 15.7743 1.90198e-19)
(46.4681 16.5256 1.80782e-18)
(46.9826 17.2993 -1.79468e-18)
(47.5273 18.0482 -2.90366e-19)
(48.1353 18.7674 -3.1426e-18)
(48.8352 19.4918 7.39497e-18)
(49.6158 20.195 4.7761e-19)
(50.425 20.8644 5.68266e-19)
(51.2929 21.6728 -2.9401e-18)
(51.5155 22.0662 0)
(50.1988 21.8533 5.32496e-18)
(42.3725 18.6936 -2.83297e-18)
(18.7569 7.63503 0)
(39.653 0.13996 6.34518e-22)
(41.2705 0.0636086 -1.42271e-22)
(41.3854 0.322483 -4.05874e-20)
(41.4121 0.405981 0)
(41.4952 0.66979 -6.45005e-22)
(41.5939 0.832305 6.83182e-21)
(41.7316 1.02439 0)
(41.8298 1.21693 -3.6861e-20)
(41.9316 1.43616 -1.22337e-20)
(42.037 1.65469 -2.02762e-21)
(42.1472 1.8924 -1.16678e-19)
(42.2544 2.14441 -4.53987e-20)
(42.3776 2.41658 4.21159e-20)
(42.4907 2.69513 0)
(42.6134 3.00111 0)
(42.726 3.31012 0)
(42.8426 3.63736 2.49459e-19)
(42.9634 3.97147 -1.91411e-19)
(43.0817 4.3121 5.00909e-19)
(43.1883 4.68291 -5.66218e-20)
(43.2821 5.09032 1.34338e-19)
(43.4054 5.50672 1.79394e-19)
(43.5275 5.9701 -8.41704e-19)
(43.6539 6.46157 -7.32174e-19)
(43.7781 6.97462 0)
(43.9129 7.52043 4.37726e-19)
(44.0516 8.0842 -1.1294e-18)
(44.1933 8.67922 6.92858e-19)
(44.4433 9.33307 -3.93086e-19)
(44.6949 10.0306 2.31701e-19)
(44.899 10.7135 -3.23186e-19)
(45.0555 11.3404 1.21412e-18)
(45.2793 11.9834 -1.34489e-18)
(45.5903 12.6722 1.86752e-18)
(45.8947 13.3604 7.83034e-19)
(46.2285 14.0648 -1.84936e-18)
(46.6151 14.7594 2.31901e-18)
(47.0571 15.4333 -1.50473e-18)
(47.5437 16.1314 2.99117e-20)
(48.0769 16.7891 0)
(48.6651 17.4336 2.55399e-18)
(49.2924 18.0788 1.74272e-18)
(49.9413 18.6641 1.92828e-19)
(50.6383 19.2178 -4.98072e-18)
(51.5093 19.8219 -1.78783e-19)
(52.1818 20.3656 -3.35957e-18)
(52.1486 20.5077 0)
(49.634 19.8921 5.53726e-18)
(39.5004 15.9337 -9.29123e-18)
(14.0831 4.7196 0)
(39.8115 -0.0296496 0)
(41.4062 -0.0922083 0)
(41.638 0.198647 5.45444e-20)
(41.7178 0.361066 3.62606e-22)
(41.7502 0.641994 -3.83647e-20)
(41.8234 0.838057 -6.12669e-21)
(41.9286 1.03234 0)
(42.0586 1.23952 3.69457e-20)
(42.1859 1.43723 -1.31801e-19)
(42.3212 1.64644 0)
(42.4438 1.85056 2.27603e-19)
(42.5622 2.07213 -6.18804e-20)
(42.6777 2.31586 1.86415e-20)
(42.8204 2.59117 -2.0784e-20)
(42.9654 2.87656 0)
(43.1185 3.19948 0)
(43.2724 3.5504 -9.01915e-20)
(43.4187 3.93928 -2.34661e-19)
(43.5775 4.3618 1.01614e-19)
(43.7605 4.78991 -4.34598e-20)
(43.9303 5.24504 1.0197e-19)
(44.0826 5.73601 -5.96446e-20)
(44.2565 6.22572 5.16384e-19)
(44.4088 6.74031 2.20362e-19)
(44.577 7.26137 -4.1678e-19)
(44.7543 7.79985 -6.40381e-19)
(44.9381 8.35511 4.16719e-19)
(45.1106 8.91655 6.75899e-19)
(45.2209 9.45764 0)
(45.352 9.99499 0)
(45.6059 10.5762 0)
(45.9548 11.2291 -8.6093e-19)
(46.235 11.8851 -6.16258e-19)
(46.4788 12.5079 -6.29808e-19)
(46.8187 13.1435 9.48743e-19)
(47.1833 13.7627 1.15692e-18)
(47.5856 14.3829 -5.34528e-19)
(48.0306 15.0183 1.63682e-18)
(48.5208 15.6041 -9.55623e-19)
(49.0517 16.2015 -1.26625e-18)
(49.5978 16.766 -1.55435e-18)
(50.1838 17.273 1.73311e-18)
(50.8513 17.768 0)
(51.6314 18.2532 2.74071e-18)
(52.4562 18.7583 -1.4817e-18)
(52.754 18.974 1.8481e-18)
(52.2058 18.8746 0)
(48.4174 17.7032 -2.73703e-18)
(35.9456 13.0396 1.59787e-18)
(8.49441 1.8002 0)
(39.678 -0.44929 -2.99925e-20)
(41.7204 -0.304242 0)
(41.989 0.0926087 -6.40335e-20)
(42.025 0.258009 6.8778e-20)
(42.0746 0.566333 3.80729e-20)
(42.1055 0.75536 -2.70309e-21)
(42.164 0.987661 3.00834e-21)
(42.2761 1.18175 0)
(42.4163 1.39315 1.26369e-19)
(42.5496 1.61055 -1.24719e-19)
(42.7008 1.84493 -1.10846e-19)
(42.8695 2.09159 1.52216e-19)
(43.0333 2.35841 -1.25005e-19)
(43.1851 2.63038 -3.33905e-20)
(43.3549 2.93376 1.95901e-20)
(43.5304 3.24714 0)
(43.7018 3.57177 -2.44715e-19)
(43.884 3.90824 2.97802e-19)
(44.0498 4.2546 5.70287e-20)
(44.1963 4.63699 -4.92806e-21)
(44.3677 5.04502 6.64555e-20)
(44.535 5.45728 0)
(44.7102 5.9217 1.06239e-19)
(44.894 6.40464 4.34015e-19)
(45.0724 6.92667 5.29483e-19)
(45.266 7.45849 6.44072e-19)
(45.4646 8.00618 0)
(45.6737 8.57875 -4.7699e-19)
(45.9651 9.19644 -1.03719e-18)
(46.2802 9.85067 5.77156e-19)
(46.55 10.4888 -1.24734e-18)
(46.7483 11.0652 -6.15493e-19)
(47.0029 11.6367 1.10513e-18)
(47.3615 12.2374 -4.0512e-19)
(47.7032 12.8285 -9.56946e-19)
(48.0583 13.4224 -5.09682e-19)
(48.4624 13.9956 -7.00234e-19)
(48.9148 14.5297 0)
(49.3972 15.0839 -1.14673e-18)
(49.9079 15.5792 2.54502e-18)
(50.4611 16.0347 1.56978e-18)
(51.059 16.4919 -1.85951e-18)
(51.6808 16.8912 2.4027e-18)
(52.3495 17.279 -1.23972e-18)
(52.9303 17.5694 3.04729e-18)
(53.0008 17.6091 1.09307e-20)
(51.7054 17.1651 0)
(45.9316 15.2565 5.60639e-18)
(30.5746 9.57551 -4.75444e-18)
(4.9876 0.119825 -1.73497e-18)
(38.9321 -0.858431 3.01718e-20)
(42.2721 -0.30382 -7.75735e-20)
(42.3422 0.00700116 4.89639e-20)
(42.4246 0.134561 -6.7377e-20)
(42.4185 0.455533 -6.46976e-20)
(42.474 0.605398 -4.21915e-21)
(42.4969 0.845936 2.47091e-21)
(42.5874 1.04913 0)
(42.7078 1.22286 -1.37977e-19)
(42.8566 1.4145 2.11443e-19)
(43.0152 1.6466 0)
(43.1855 1.88314 -1.5577e-20)
(43.3681 2.13216 -1.50721e-21)
(43.5654 2.40616 1.80696e-19)
(43.7594 2.68865 -2.7566e-19)
(43.9496 3.0137 -2.96327e-21)
(44.1639 3.37556 3.91012e-20)
(44.367 3.76377 0)
(44.597 4.19771 -1.59957e-19)
(44.8463 4.61681 3.61831e-19)
(45.0558 5.0752 -4.24107e-20)
(45.2797 5.57645 0)
(45.5114 6.0677 0)
(45.7307 6.57306 -2.17592e-19)
(45.9487 7.08351 9.58018e-20)
(46.1713 7.61799 -7.05358e-19)
(46.4024 8.15967 2.66769e-19)
(46.62 8.70033 -1.54584e-19)
(46.7816 9.21311 5.0686e-19)
(46.9436 9.70341 2.2248e-19)
(47.2067 10.2211 7.23069e-19)
(47.5818 10.7978 -7.501e-19)
(47.9039 11.3873 4.79845e-19)
(48.1631 11.9378 -5.03365e-19)
(48.5067 12.4831 -5.96427e-19)
(48.8792 13.0025 -6.46773e-19)
(49.281 13.5079 0)
(49.7085 14.0264 1.53901e-18)
(50.1665 14.4705 -5.74759e-19)
(50.6524 14.913 -1.37981e-18)
(51.1449 15.3324 1.64115e-18)
(51.6525 15.6754 -4.47359e-20)
(52.2254 16.0002 -1.22605e-18)
(52.9711 16.3515 -2.58292e-20)
(53.2355 16.4508 -1.58992e-18)
(52.8226 16.2639 -4.03752e-18)
(50.1773 15.3726 2.27805e-18)
(42.1386 12.593 0)
(24.3489 6.14642 -3.10949e-18)
(2.35936 -0.402301 5.97281e-18)
(38.1298 -0.727107 1.59564e-22)
(42.8708 -0.118845 7.79073e-20)
(42.5084 -0.038978 -2.87397e-20)
(42.6842 0.0333307 -9.59384e-22)
(42.6664 0.306069 6.49017e-20)
(42.7466 0.403521 0)
(42.8111 0.651218 0)
(42.8781 0.864366 -4.50642e-21)
(42.9992 1.06477 2.44822e-19)
(43.147 1.29132 -8.94604e-20)
(43.3144 1.50394 8.0895e-21)
(43.5009 1.75458 -1.88895e-20)
(43.7115 2.02384 8.63621e-20)
(43.9301 2.31432 -9.20893e-20)
(44.1522 2.62685 3.97902e-19)
(44.3914 2.9304 -9.15706e-20)
(44.6183 3.242 1.10916e-19)
(44.8581 3.57944 3.1913e-20)
(45.0543 3.92529 -3.42685e-19)
(45.2631 4.33575 -2.35088e-19)
(45.5121 4.72468 3.84931e-21)
(45.7212 5.13247 -6.22039e-20)
(45.9388 5.59584 0)
(46.1765 6.09036 -2.90573e-19)
(46.4098 6.60435 3.60054e-21)
(46.6482 7.12409 7.10786e-20)
(46.8922 7.6544 7.58741e-20)
(47.1426 8.20465 1.99197e-19)
(47.4544 8.78724 0)
(47.8047 9.40249 1.36461e-19)
(48.1207 10.0087 7.7102e-19)
(48.3286 10.5443 7.06969e-19)
(48.5652 11.0451 -3.78209e-19)
(48.9273 11.5665 7.79572e-19)
(49.2723 12.078 -6.3489e-19)
(49.609 12.5798 -3.88982e-19)
(49.983 13.0605 0)
(50.3981 13.4778 -1.02944e-18)
(50.8268 13.92 -6.50329e-19)
(51.2657 14.3017 7.26414e-19)
(51.7266 14.6116 -8.68243e-19)
(52.2383 14.9303 1.03005e-18)
(52.8771 15.2614 0)
(53.192 15.41 6.83757e-19)
(53.0859 15.3546 0)
(51.9239 14.9656 1.00975e-18)
(47.6513 13.5942 -2.28693e-18)
(36.5702 10.0827 1.29452e-18)
(14.8439 2.91596 0)
(0.178283 -0.244591 3.8519e-19)
(37.7146 -0.397191 2.73801e-23)
(43.2293 0.0772796 3.10208e-23)
(42.4989 -0.0672948 2.91648e-20)
(42.9211 -0.00367037 1.65847e-22)
(42.8106 0.206665 1.43374e-21)
(42.9771 0.21568 2.36552e-22)
(43.0515 0.433244 -2.63309e-22)
(43.1781 0.601391 6.93432e-22)
(43.3216 0.80869 -9.42523e-20)
(43.4863 1.03104 -2.11329e-21)
(43.6752 1.25826 -1.24117e-21)
(43.8579 1.45749 2.88641e-21)
(44.0588 1.68477 1.00075e-19)
(44.2889 1.94513 -1.23822e-19)
(44.5503 2.24001 -1.58956e-19)
(44.8114 2.57364 9.1373e-20)
(45.0776 2.93676 -1.07367e-19)
(45.3399 3.3239 -4.89669e-21)
(45.6505 3.7434 -5.89247e-21)
(45.9412 4.15318 0)
(46.2167 4.65008 -8.46872e-21)
(46.5096 5.14542 -4.88765e-21)
(46.7857 5.62128 5.45865e-21)
(47.0575 6.11586 0)
(47.3255 6.63876 0)
(47.5798 7.16745 2.72395e-19)
(47.8373 7.7032 0)
(48.0837 8.23152 -1.99457e-19)
(48.2793 8.73317 0)
(48.4484 9.19579 9.75336e-21)
(48.6852 9.65578 -3.55346e-19)
(49.0497 10.1646 2.52296e-20)
(49.3871 10.7051 -4.9936e-19)
(49.6326 11.1997 4.45657e-20)
(49.934 11.6741 2.84969e-19)
(50.2712 12.1207 4.38833e-19)
(50.6388 12.5375 -1.52303e-20)
(51.0118 12.983 0)
(51.3975 13.3328 -1.04918e-20)
(51.7959 13.6563 1.22904e-20)
(52.2028 13.9874 0)
(52.6481 14.2696 -1.62495e-20)
(53.0669 14.5039 -7.29022e-20)
(53.1432 14.5384 -5.98307e-19)
(52.72 14.4341 -1.31031e-20)
(50.3091 13.7144 0)
(43.3781 11.734 0)
(28.4498 7.27475 1.7704e-19)
(6.77938 0.990227 -1.75084e-19)
(-1.17828 -0.0118544 3.9533e-19)
(37.6708 -0.00639201 7.02433e-20)
(43.2968 0.215298 8.24125e-20)
(42.3965 -0.0514569 4.23014e-20)
(43.0786 -0.0381789 5.51167e-20)
(42.8783 0.196247 5.51386e-20)
(43.0995 0.108105 -7.26424e-20)
(43.1936 0.33133 0)
(43.3635 0.4047 0)
(43.5253 0.597728 6.34465e-20)
(43.7195 0.8416 2.11304e-21)
(43.9262 1.03614 -8.78934e-20)
(44.1693 1.28249 -6.45109e-21)
(44.4107 1.53786 -1.30036e-19)
(44.6544 1.79276 1.58281e-19)
(44.9019 2.05404 2.08407e-19)
(45.2012 2.34517 0)
(45.5092 2.66292 0)
(45.7934 2.9894 4.89598e-21)
(46.0419 3.34139 5.8916e-21)
(46.3252 3.73805 -2.57239e-19)
(46.6276 4.1 8.46744e-21)
(46.9072 4.54273 0)
(47.1822 5.02874 0)
(47.4724 5.52456 -6.29238e-20)
(47.7278 6.03022 -3.09606e-19)
(48.0014 6.55062 9.31681e-20)
(48.274 7.07616 0)
(48.5437 7.61121 -2.49292e-19)
(48.8483 8.17006 0)
(49.2078 8.76382 -9.75052e-21)
(49.5485 9.3623 0)
(49.7458 9.88531 0)
(49.93 10.3366 1.3554e-19)
(50.2525 10.8 1.58877e-19)
(50.5731 11.2554 0)
(50.8714 11.6932 0)
(51.1849 12.1228 1.5222e-20)
(51.5314 12.4575 0)
(51.8774 12.8223 1.04851e-20)
(52.2251 13.1584 -4.1557e-19)
(52.5919 13.4102 4.67087e-19)
(53.0666 13.7172 3.55059e-20)
(53.2275 13.8137 2.20954e-20)
(53.0538 13.8394 -7.11439e-19)
(51.5873 13.4843 -4.17159e-19)
(47.1481 12.3439 2.37993e-18)
(36.9121 9.46518 -1.07436e-18)
(17.8377 3.96657 -1.23754e-18)
(2.27477 0.329844 1.01873e-18)
(-1.8053 0.0783483 0)
(37.9531 0.283589 -6.99452e-20)
(43.2387 0.26216 9.96236e-20)
(42.136 0.0683102 -4.20203e-20)
(43.296 -0.0186739 6.86792e-20)
(42.8791 0.216647 -5.79792e-20)
(43.2597 0.0448383 7.46536e-20)
(43.3148 0.283061 6.00991e-21)
(43.5559 0.237468 -6.69257e-21)
(43.7669 0.403337 -5.46477e-20)
(43.9372 0.55979 -9.75705e-21)
(44.1581 0.731199 9.36139e-20)
(44.4242 0.892698 2.51971e-19)
(44.6896 1.11949 -1.68008e-19)
(44.9728 1.35815 -1.44414e-19)
(45.2995 1.60994 -6.80836e-19)
(45.58 1.89561 3.37624e-20)
(45.8881 2.24622 -3.76861e-20)
(46.2562 2.6307 3.96885e-19)
(46.6373 3.01367 5.88659e-20)
(46.9785 3.45432 1.9118e-19)
(47.3155 3.95341 0)
(47.6612 4.41526 0)
(47.996 4.89839 0)
(48.3202 5.41938 0)
(48.653 5.95318 3.0508e-19)
(48.9422 6.49393 -7.95687e-19)
(49.214 7.04028 0)
(49.4688 7.58255 7.94888e-19)
(49.6797 8.09615 0)
(49.837 8.5568 0)
(50.0193 8.98006 -8.62543e-19)
(50.3323 9.43704 4.94895e-19)
(50.6599 9.95331 -1.13013e-18)
(50.8838 10.4213 3.25849e-19)
(51.1205 10.856 0)
(51.3905 11.2626 0)
(51.7056 11.6175 5.29811e-19)
(52.0092 12.0311 -1.81817e-18)
(52.3124 12.3506 0)
(52.6221 12.6067 -1.24264e-18)
(53.0358 12.9684 1.7737e-18)
(53.1968 13.1353 -2.0476e-18)
(53.1117 13.2165 1.23436e-18)
(52.2567 13.0898 -1.46018e-18)
(49.4729 12.4737 3.70131e-18)
(42.3596 10.5972 -3.26013e-18)
(27.8001 6.72156 2.11336e-18)
(7.4419 1.42651 -4.70288e-18)
(-0.800617 0.25939 5.6007e-18)
(-2.05856 0.0752807 -3.5985e-18)
(38.412 0.485049 -1.59509e-19)
(43.1884 0.216203 1.23722e-20)
(41.9095 0.23195 0)
(43.4483 0.00677871 -1.22889e-19)
(42.8287 0.258233 -2.84319e-19)
(43.3683 0.0184873 1.02754e-20)
(43.3193 0.260972 0)
(43.6484 0.150269 0)
(43.8713 0.288545 -1.91816e-20)
(44.0814 0.376905 2.1368e-20)
(44.3296 0.496703 -4.47726e-19)
(44.6012 0.6941 2.9117e-19)
(44.9009 0.897334 3.05987e-19)
(45.2357 1.10725 -4.02691e-19)
(45.5518 1.35134 4.51511e-19)
(45.9151 1.61528 7.4528e-20)
(46.2655 1.8394 -8.01944e-19)
(46.5877 2.14169 -1.26256e-18)
(46.9176 2.50879 0)
(47.2828 2.85217 6.25995e-19)
(47.6675 3.23905 7.48837e-19)
(48.0257 3.70844 0)
(48.362 4.20265 -1.0612e-18)
(48.6956 4.69453 0)
(48.9824 5.23288 0)
(49.2959 5.77632 7.92987e-19)
(49.5951 6.32618 5.18021e-19)
(49.8753 6.87407 1.19689e-18)
(50.1584 7.43438 0)
(50.4976 8.02844 0)
(50.8396 8.65026 4.05709e-19)
(51.0193 9.19773 5.06943e-19)
(51.1309 9.62618 1.83467e-18)
(51.3718 10.0561 2.38431e-20)
(51.6422 10.4782 2.7818e-20)
(51.9027 10.8763 -1.85192e-18)
(52.1503 11.2941 -3.72736e-20)
(52.4207 11.5864 2.43672e-18)
(52.6864 11.8922 1.44829e-18)
(53.0249 12.2835 7.9069e-19)
(53.2493 12.5301 1.75909e-18)
(53.2643 12.603 5.8217e-20)
(52.83 12.6563 -2.47362e-18)
(51.0284 12.3566 -1.43398e-18)
(45.8393 11.1049 -4.08336e-18)
(34.4355 8.30477 4.60406e-18)
(15.0684 3.32372 -2.05201e-18)
(1.87532 0.692766 0)
(-2.25622 0.380319 0)
(-1.97053 0.20046 7.09257e-19)
(38.8563 0.670474 4.78728e-19)
(43.0504 -0.0519112 2.08334e-19)
(41.766 0.312215 -2.05806e-19)
(43.5466 -0.0704975 8.26701e-21)
(42.7031 0.259643 5.61545e-19)
(43.4793 -0.127953 -1.08634e-20)
(43.2941 0.22887 0)
(43.7536 -0.0111695 -5.4205e-19)
(43.9267 0.129322 -2.04739e-20)
(44.2319 0.103289 -2.12364e-21)
(44.4866 0.190434 9.47379e-19)
(44.7346 0.321236 -5.05085e-19)
(45.0608 0.434869 3.78283e-21)
(45.4129 0.589372 3.52041e-19)
(45.8052 0.811338 0)
(46.1799 1.07905 0)
(46.574 1.40482 6.19771e-19)
(47.0125 1.70233 9.72383e-19)
(47.4599 2.06149 0)
(47.869 2.51345 -6.24017e-19)
(48.2672 2.95827 -7.46327e-19)
(48.7062 3.42173 -2.39723e-19)
(49.1207 3.93461 1.78314e-19)
(49.499 4.48097 1.02235e-18)
(49.9092 5.03443 3.74977e-19)
(50.2502 5.61651 4.61011e-19)
(50.5412 6.21208 -1.52624e-18)
(50.8057 6.802 -1.17837e-18)
(51.0237 7.36751 1.47566e-18)
(51.1613 7.87204 -1.70174e-18)
(51.267 8.29593 0)
(51.4846 8.72187 0)
(51.7678 9.23675 5.21479e-20)
(51.9653 9.70025 -1.42084e-18)
(52.1373 10.1198 1.68981e-18)
(52.3224 10.5134 2.90689e-18)
(52.5753 10.8222 -1.08133e-18)
(52.817 11.2116 -2.55842e-18)
(53.0968 11.5805 -2.8696e-18)
(53.3715 11.8639 -1.6122e-18)
(53.4303 12.0031 -4.89187e-20)
(53.1788 12.1341 2.14442e-18)
(51.9147 12.0751 0)
(47.9966 11.2151 1.4189e-18)
(39.0864 9.19073 1.60988e-18)
(23.0571 5.2027 1.7937e-18)
(5.48484 1.2688 6.03024e-18)
(-1.20123 0.601572 -2.25413e-18)
(-2.83485 0.444792 0)
(-1.79601 0.28463 0)
(39.2324 0.849046 -1.11099e-21)
(42.8059 -0.476142 -4.05298e-19)
(41.7454 0.381948 2.09814e-19)
(43.5794 -0.244605 -5.67771e-19)
(42.5196 0.228427 -3.03188e-19)
(43.5412 -0.269209 -9.50211e-22)
(43.2082 0.197432 1.3332e-20)
(43.7195 -0.15619 5.05655e-19)
(43.8354 0.0515771 3.91941e-20)
(44.2365 -0.0728049 5.20291e-20)
(44.5557 -0.00217052 -4.66427e-19)
(44.8354 0.111466 -7.02509e-20)
(45.146 0.200085 -7.25658e-19)
(45.5283 0.311435 -8.84303e-19)
(45.8967 0.484027 1.38936e-19)
(46.3436 0.667262 -1.54978e-19)
(46.7996 0.847859 0)
(47.1817 1.13693 -9.77645e-19)
(47.5917 1.43646 0)
(48.0805 1.74385 0)
(48.5605 2.15205 0)
(48.9787 2.60658 -5.14629e-19)
(49.4125 3.10148 1.71604e-18)
(49.8282 3.63254 -1.35092e-18)
(50.1724 4.20868 0)
(50.5224 4.80912 -4.95431e-19)
(50.8643 5.41227 -1.79259e-18)
(51.1762 6.02035 -2.72522e-18)
(51.4403 6.63062 -2.23694e-18)
(51.7442 7.26077 1.62686e-18)
(52.0738 7.93656 -2.00458e-18)
(52.2306 8.55618 1.1338e-18)
(52.2588 9.00078 2.68856e-18)
(52.3775 9.42011 0)
(52.5565 9.81792 1.80601e-18)
(52.7713 10.1797 -3.89852e-18)
(52.9631 10.5929 -5.65464e-20)
(53.1931 10.891 2.5307e-18)
(53.4503 11.1809 1.4353e-18)
(53.5712 11.4656 0)
(53.4333 11.6447 1.92919e-18)
(52.5237 11.657 -2.19638e-18)
(49.6474 11.155 4.9707e-18)
(42.7384 9.71828 0)
(29.2844 6.53031 -6.33199e-18)
(9.47887 2.06581 1.75381e-18)
(0.572531 0.781079 -1.98001e-18)
(-2.48632 0.565903 -2.21047e-18)
(-2.88315 0.505976 4.916e-18)
(-1.52555 0.301058 1.5826e-21)
(39.4253 0.988934 -3.18679e-19)
(42.3941 -0.887691 4.0086e-19)
(41.8735 0.42098 -3.8819e-19)
(43.4775 -0.565274 1.12747e-18)
(42.3643 0.155771 -5.73679e-19)
(43.5759 -0.564524 4.61814e-20)
(43.1348 0.0639242 -4.36851e-19)
(43.7204 -0.44705 0)
(43.7199 -0.08924 -6.30116e-19)
(44.2163 -0.410421 8.60969e-19)
(44.5067 -0.311115 5.43986e-21)
(44.8472 -0.326531 -7.13654e-20)
(45.2268 -0.277681 7.23229e-19)
(45.5918 -0.194034 -1.96927e-20)
(46.0014 -0.0719318 9.59349e-19)
(46.4295 0.0935994 1.59794e-19)
(46.9356 0.361499 0)
(47.5081 0.601385 9.73277e-19)
(48.0309 0.91715 2.46009e-18)
(48.4971 1.30462 0)