/*--------------------------------*- C++ -*----------------------------------*\
| =========                 |                                                 |
| \\      /  F ield         | OpenFOAM: The Open Source CFD Toolbox           |
|  \\    /   O peration     | Version:  v1912                                 |
|   \\  /    A nd           | Website:  www.openfoam.com                      |
|    \\/     M anipulation  |                                                 |
\*---------------------------------------------------------------------------*/
FoamFile
{
    version     2.0;
    format      ascii;
    class       volScalarField;
    location    "0.49";
    object      p;
}
// * * * * * * * * * * * * * * * * * * * * * * * * * * * * * * * * * * * * * //

dimensions      [0 2 -2 0 0 0 0];


internalField   nonuniform List<scalar> 
6600
(
349.78
345.606
343.577
342.447
341.851
341.867
342.162
342.632
343.423
344.586
346.173
348.162
350.544
353.328
356.561
360.252
364.339
368.829
373.643
378.857
384.449
390.366
396.594
403.005
409.758
416.782
423.991
431.065
438.23
445.241
451.835
457.902
463.263
467.407
470.206
471.52
470.995
468.125
462.507
453.392
440.113
422.207
399.142
370.184
334.402
290.788
238.982
178.7
106.623
28.8997
347.482
343.707
342.451
341.349
340.791
340.749
340.999
341.461
342.253
343.405
344.95
346.864
349.12
351.676
354.594
357.968
361.804
366.131
370.697
375.502
380.562
385.922
391.553
397.275
402.962
408.875
414.911
420.826
426.646
432.249
437.393
441.793
445.152
447.153
447.38
445.755
442.098
435.864
426.632
413.744
396.46
374.238
346.418
312.29
270.913
221.47
163.805
97.7208
21.5379
-58.7382
344.746
341.287
340.921
340.05
339.61
339.531
339.734
340.239
341.106
342.329
343.901
345.802
348.043
350.599
353.477
356.66
360.138
364.029
368.326
372.883
377.565
382.31
387.209
392.334
397.416
402.398
407.345
412.214
416.503
420.196
423.228
425.505
426.708
426.269
423.829
419.324
412.432
402.609
389.516
372.585
350.934
324.076
291.53
252.492
206.161
151.663
88.7986
18.3202
-59.144
-137.251
341.866
338.72
338.993
338.214
337.989
337.962
338.181
338.732
339.636
340.903
342.501
344.425
346.603
349.11
351.971
355.168
358.629
362.146
365.923
369.962
374.325
378.754
382.986
387.165
391.462
395.638
399.365
402.749
405.712
407.821
408.8
408.608
407.148
404.07
398.962
391.466
381.293
367.865
350.75
329.599
303.827
272.726
235.663
192.104
141.539
83.1547
16.8126
-55.9347
-132.899
-206.321
338.942
336.059
336.624
335.649
335.654
335.692
335.974
336.591
337.53
338.782
340.345
342.27
344.492
347.019
349.748
352.652
355.83
359.199
362.659
366.122
369.723
373.532
377.404
380.957
384.252
387.308
390.084
391.895
393.091
393.296
392.249
389.836
385.76
379.969
371.992
361.498
348.027
331.086
310.367
285.366
255.593
220.71
180.188
133.416
79.991
19.2384
-48.8386
-122.232
-197.229
-264.228
335.977
333.192
333.787
332.516
332.666
332.72
333.068
333.72
334.682
335.908
337.403
339.15
341.188
343.537
346.165
348.926
351.714
354.63
357.67
360.812
363.876
366.748
369.653
372.381
374.707
376.402
377.572
378.214
377.867
376.302
373.274
368.579
362.152
353.685
342.869
329.376
312.838
292.763
268.772
240.623
207.87
170.042
126.855
78.046
23.3023
-37.9076
-105.748
-178.267
-249.89
-308.553
332.757
329.999
330.472
329.175
329.282
329.313
329.664
330.312
331.219
332.36
333.772
335.397
337.199
339.124
341.233
343.57
346.078
348.585
350.991
353.385
355.764
358.029
359.963
361.582
362.782
363.489
363.162
362.037
359.678
356.187
351.317
344.687
336.007
325.07
311.742
295.606
276.298
253.617
227.252
196.751
161.861
122.407
78.0603
28.5415
-26.2828
-86.7634
-152.977
-222.954
-289.426
-337.999
329.172
326.331
326.632
325.424
325.536
325.55
325.883
326.489
327.305
328.328
329.535
330.907
332.44
334.093
335.771
337.477
339.295
341.229
343.162
344.945
346.347
347.564
348.411
348.796
348.524
347.727
346.18
343.492
339.653
334.318
327.373
318.717
308.088
295.242
279.759
261.432
240.086
215.383
187.128
155.169
119.199
79.0524
34.6668
-14.1438
-67.6305
-126.146
-189.353
-255.014
-315.299
-352.696
324.893
322.124
322.253
321.047
321.111
321.123
321.46
322.021
322.751
323.674
324.763
325.911
327.088
328.314
329.564
330.843
331.961
332.991
333.984
334.906
335.615
335.855
335.63
334.906
333.509
331.249
328.077
323.642
318.057
311.081
302.485
292.012
279.56
264.83
247.645
227.735
204.911
179.088
150.051
117.538
81.4407
41.7158
-1.69617
-48.9011
-100.035
-155.512
-215.141
-275.625
-328.357
-354.896
319.882
317.194
317.273
316.029
316.06
315.963
316.231
316.718
317.335
318.051
318.861
319.751
320.706
321.63
322.447
323.222
323.885
324.366
324.569
324.401
324
323.149
321.728
319.715
317.07
313.482
308.956
303.429
296.405
287.787
277.549
265.584
251.616
235.463
216.941
195.983
172.412
145.931
116.549
84.272
48.9806
10.6149
-30.7952
-75.3034
-123.115
-174.452
-229.529
-284.687
-330.607
-348.467
313.81
311.438
311.426
310.292
310.411
310.141
310.277
310.596
310.986
311.481
311.986
312.489
313.012
313.543
314.057
314.327
314.388
314.212
313.712
312.888
311.608
309.835
307.508
304.432
300.581
295.786
289.843
282.643
274.273
264.504
253.086
239.879
224.682
207.521
188.273
166.723
142.813
116.604
87.918
56.5966
22.6612
-13.7367
-52.5011
-93.625
-137.237
-183.824
-233.043
-282.188
-322.848
-336.791
306.835
304.86
304.847
303.9
304.062
303.694
303.736
303.825
303.907
304.045
304.217
304.398
304.482
304.435
304.376
304.207
303.872
303.186
302.035
300.378
298.183
295.463
292.167
288.108
283.126
277.266
270.496
262.419
252.935
242.015
229.555
215.47
199.691
181.961
162.262
140.693
117.093
91.2928
63.4944
33.8305
2.24319
-31.3823
-66.8766
-103.989
-142.591
-183.392
-225.289
-266.051
-298.677
-312.826
299.181
297.635
297.698
296.949
297.06
296.677
296.683
296.546
296.414
296.274
296.039
295.757
295.423
294.92
294.156
293.186
291.978
290.555
288.932
286.78
284.043
280.698
276.649
271.813
266.119
259.327
251.223
242.137
231.963
220.431
207.402
192.778
176.47
158.604
139.104
117.791
94.8293
70.3264
44.1522
16.2995
-12.996
-43.4335
-74.9699
-107.354
-140.738
-174.637
-207.488
-235.969
-254.128
-266.377
291.138
290.045
290.131
289.539
289.56
289.136
289.07
288.78
288.438
288.074
287.574
286.864
285.99
284.972
283.764
282.277
280.454
278.198
275.541
272.548
269.102
265.004
260.236
254.685
248.283
241.054
232.807
223.264
212.343
200.207
186.765
171.951
155.655
137.796
118.574
98.08
76.1379
52.7848
28.3385
3.04363
-23.0973
-50.0831
-77.5223
-104.941
-132.45
-158.694
-181.855
-198.367
-203.443
-209.728
282.651
281.935
282.309
281.737
281.763
281.309
281.107
280.647
280.158
279.516
278.721
277.764
276.518
274.947
273.077
270.893
268.47
265.702
262.477
258.779
254.611
249.924
244.488
238.448
231.523
223.479
214.542
204.671
193.641
181.302
167.668
152.772
136.649
119.401
100.873
81.0229
60.2525
38.6992
16.2912
-6.90438
-30.4485
-53.8723
-77.0079
-99.7761
-121.128
-139.973
-154.391
-162.73
-167.788
-169.994
273.869
273.741
274.097
273.788
273.868
273.394
273.131
272.419
271.719
270.808
269.628
268.273
266.706
264.916
262.741
260.157
257.069
253.556
249.666
245.325
240.409
235.02
228.975
222.209
214.868
206.915
197.878
187.627
176.34
164.012
150.509
135.849
120.023
103.084
85.2276
66.5906
47.0124
26.687
6.09262
-14.5513
-35.3548
-55.9638
-75.6133
-94.0075
-110.792
-124.251
-132.315
-134.917
-141.524
-143.425
265.176
265.552
266.032
265.96
266.043
265.563
265.247
264.412
263.491
262.343
260.897
259.126
257.013
254.637
251.957
249.03
245.678
241.84
237.455
232.624
227.315
221.37
214.909
207.767
199.786
191.067
181.705
171.628
160.465
148.189
134.896
120.512
105.207
89.0616
71.9183
53.8798
35.3912
16.6294
-2.3928
-21.4752
-40.3027
-58.4576
-75.4573
-90.7686
-104.095
-113.883
-117.571
-119.459
-121.529
-124.743
256.841
257.69
258.344
258.341
258.554
258.12
257.747
256.779
255.715
254.22
252.458
250.432
248.061
245.28
242.093
238.503
234.554
230.226
225.401
220.04
214.247
207.978
201.078
193.671
185.75
177.068
167.543
157.223
146.172
134.198
121.177
107.175
92.2115
76.304
59.8748
43.0077
25.3802
7.21533
-10.8924
-28.7204
-46.246
-62.7351
-77.4393
-90.0767
-100.07
-106.748
-109.04
-112.295
-112.312
-114.078
248.94
250.249
251.062
251.206
251.561
251.152
250.799
249.761
248.654
246.956
244.856
242.356
239.484
236.259
232.689
228.663
224.221
219.347
214.069
208.35
202.118
195.524
188.504
180.785
172.45
163.609
154.257
144.128
133.176
121.414
108.792
95.2397
80.8675
65.7396
49.6285
32.8223
15.8428
-1.46529
-19.1046
-36.4863
-52.9545
-67.9891
-81.3849
-91.6508
-97.3161
-98.3458
-102.419
-104.736
-106.919
-107.541
241.465
243.316
244.392
244.742
245.226
244.872
244.514
243.452
242.235
240.459
238.315
235.618
232.369
228.627
224.412
219.758
214.672
209.147
203.228
196.962
190.311
183.224
175.871
168.213
160.131
151.385
141.988
132.099
121.568
110.286
98.1758
85.0518
70.8635
55.8638
40.4471
24.3534
7.46169
-9.90803
-27.7179
-45.501
-62.0077
-75.8924
-87.2889
-94.9864
-97.7375
-97.8983
-99.4209
-102.339
-104.886
-105.442
234.583
236.916
238.25
238.888
239.587
239.48
239.192
238.274
236.946
234.959
232.563
229.621
226.132
222.063
217.404
212.207
206.515
200.35
193.743
186.811
179.637
172.124
164.262
156.103
147.762
139.176
130.161
120.607
110.487
99.7478
88.1989
75.7097
62.2158
47.7399
32.2453
16.0784
-0.55675
-17.9961
-36.2573
-55.0695
-72.863
-87.3995
-95.8506
-98.6749
-98.9659
-101.222
-102.44
-105.25
-107.209
-107.397
228.257
231.027
232.585
233.634
234.605
234.774
234.705
233.915
232.747
230.806
228.317
225.142
221.335
216.846
211.706
205.927
199.559
192.678
185.309
177.549
169.539
161.367
153.064
144.564
135.88
127.077
118.199
109.094
99.7283
89.8812
79.2297
67.5444
54.5417
40.385
25.4518
9.80355
-6.95346
-24.8583
-43.9526
-63.9534
-84.6783
-102.77
-110.598
-105.913
-104.944
-105.38
-107.49
-110.188
-112.188
-112.026
222.311
225.573
227.255
228.788
230.209
230.766
231.039
230.462
229.381
227.523
225.015
221.74
217.753
213.003
207.493
201.236
194.263
186.653
178.506
169.881
160.918
151.787
142.543
133.268
124.114
115.111
106.126
97.2465
88.3853
79.2585
69.6883
59.2499
47.5319
34.3258
19.7218
4.22673
-11.9862
-29.885
-49.8613
-71.3301
-94.3968
-115.339
-125.655
-123.611
-116.751
-114.842
-114.91
-115.744
-116.715
-116.907
216.579
220.539
222.109
224.21
226.051
227.098
227.841
227.722
227.021
225.415
223.025
219.672
215.469
210.435
204.531
197.823
190.298
181.888
172.81
163.178
153.136
142.888
132.604
122.308
112.211
102.585
93.3777
84.6697
76.2633
68.1359
59.9531
51.0363
40.6781
28.4896
14.7307
0.193554
-15.2043
-32.0788
-51.0973
-73.9507
-97.901
-118.608
-131.407
-134.815
-128.364
-124.33
-121.749
-120.361
-119.865
-119.822
210.808
215.772
217.115
219.965
222.293
223.821
224.995
225.322
225.029
223.846
221.781
218.704
214.549
209.32
203.043
195.875
187.979
178.767
168.735
157.993
146.696
135.056
123.319
111.759
100.56
89.9432
80.0852
71.1011
62.8513
55.3582
48.3755
41.3586
33.3128
23.3271
11.0527
-2.7159
-16.517
-30.7236
-48.7896
-70.4597
-93.4387
-112.092
-130.077
-135.589
-134.434
-130.551
-126.425
-123.21
-121.601
-121.288
204.685
211.075
212.142
215.923
218.609
220.711
222.57
223.516
223.723
222.986
221.277
218.459
214.53
209.339
202.79
194.962
186.938
176.766
165.737
153.788
141.112
127.906
114.512
101.23
88.4324
76.5078
65.7173
56.0687
47.8204
40.8444
35.1708
30.2225
24.6935
17.2086
7.17124
-4.30137
-15.8211
-28.4128
-41.9662
-58.0246
-78.3603
-104.344
-123.034
-135.113
-138.115
-135.955
-131.261
-126.406
-123.529
-122.483
197.59
206.629
206.67
211.878
214.87
217.516
220.074
221.783
222.655
222.553
221.417
219.066
215.447
210.465
204.026
196.017
186.998
176.366
164.346
151.117
136.86
121.888
106.525
91.2303
76.4378
62.8618
50.7416
39.9263
30.9277
24.1507
19.3075
16.2656
13.5772
9.02946
1.7741
-7.17065
-15.1631
-25.3447
-35.0267
-40.3763
-54.5717
-90.4383
-124.777
-146.461
-153.074
-150.698
-144.302
-137.279
-131.587
-128.795
189
202.248
200.546
207.437
210.909
214.416
217.7
220.171
221.873
222.466
221.892
220.094
216.903
212.203
205.955
197.782
188.174
177.029
163.974
149.508
133.567
116.89
99.5223
81.9961
64.7705
48.67
34.2534
21.9822
11.9521
4.54507
0.517574
-0.484869
0.321734
0.00330709
-4.44855
-11.0792
-16.6331
-20.2336
-22.7263
-24.0796
-55.8286
-102.201
-151.991
-187.16
-201.349
-198.197
-184.942
-169.857
-159.845
-154.325
178.26
197.857
194.647
202.494
206.457
211.093
215.151
218.356
220.973
222.456
222.568
221.45
218.894
214.72
208.584
200.625
190.698
178.891
165.069
149.093
131.677
112.926
93.5408
73.4362
53.3709
34.4452
17.6526
2.99562
-8.79909
-16.7573
-20.5355
-20.7088
-17.2989
-12.3246
-9.68143
-13.1222
-25.8671
-28.0711
-8.10398
-20.512
-69.594
-138.387
-205.741
-256.117
-279.335
-276.381
-256.181
-232.147
-215.451
-207.159
145.592
183.608
188.613
196.988
201.708
207.484
212.351
216.013
219.327
221.852
222.967
222.604
220.476
216.536
210.982
203.329
193.051
180.591
166.311
149.026
130.04
109.419
87.7128
65.2353
41.9166
19.3505
-0.335689
-17.5493
-31.896
-40.8208
-44.8249
-45.4143
-38.0998
-25.6389
-12.0628
-2.40902
-6.65446
-10.5138
5.44618
-24.8493
-96.2079
-189.665
-279.333
-348.212
-381.911
-379.417
-350.494
-316.004
-292.535
-282.834
226.044
221.4
219.092
217.757
216.699
215.722
214.712
213.67
212.639
211.556
210.399
209.093
207.683
206.137
204.449
202.674
200.652
198.486
196.278
193.87
191.293
188.488
185.308
181.453
177.454
173.204
168.645
163.508
157.713
151.387
144.302
136.111
126.631
115.831
103.44
89.0175
72.1334
52.4002
29.3429
2.2912
-29.3595
-66.2903
-109.269
-159.114
-216.77
-283.36
-359.258
-442.914
-543.64
-653.254
222.81
217.951
216.084
214.403
212.795
211.29
209.881
208.498
207.102
205.622
204.014
202.298
200.439
198.415
196.152
193.886
191.326
188.282
185.032
181.603
177.79
173.706
169.465
164.679
159.168
153.082
146.483
139.358
131.227
122.213
112.299
101.134
88.3965
73.9231
57.5007
38.7135
17.0813
-7.90545
-36.7276
-69.9556
-108.293
-152.492
-203.405
-261.813
-328.286
-404.35
-490.422
-584.313
-694.026
-813.536
218.264
213.253
211.727
209.653
207.691
205.836
204.067
202.361
200.58
198.662
196.545
194.264
191.825
189.164
186.28
183.104
179.708
176.026
171.894
167.386
162.47
157.001
151.008
144.747
137.777
130.032
121.309
111.821
101.405
89.7378
76.7617
62.2621
45.9373
27.5458
6.80063
-16.7433
-43.5173
-74.0075
-108.799
-148.55
-193.889
-245.528
-304.413
-371.342
-446.527
-531.739
-627.013
-730.561
-845.579
-970.057
212.958
207.649
206.353
203.897
201.686
199.655
197.609
195.468
193.187
190.737
188.129
185.264
182.153
178.743
175.114
171.071
166.64
161.839
156.703
150.995
144.759
138.011
130.58
122.395
113.487
103.809
93.163
81.2409
68.0883
53.4708
37.2242
19.2331
-0.857093
-23.363
-48.5646
-76.9147
-108.988
-145.37
-186.447
-232.791
-285.147
-344.25
-410.84
-485.731
-569.366
-662.852
-766.656
-878.492
-997.051
-1120.99
206.974
201.33
200.212
197.506
195.185
192.909
190.571
188.039
185.307
182.367
179.22
175.803
172.03
167.868
163.193
158.146
152.784
146.939
140.555
133.632
125.978
117.467
108.205
98.1051
87.0732
75.0212
61.9814
47.7174
31.9053
14.3737
-5.11358
-26.8389
-50.9824
-77.8563
-107.838
-141.416
-178.874
-220.96
-268.243
-321.282
-380.6
-446.79
-520.607
-602.857
-694.09
-794.926
-905.557
-1023.38
-1144.27
-1265.66
200.23
194.489
193.52
190.492
188.161
185.664
182.978
180.073
176.941
173.567
169.883
165.868
161.411
156.573
151.175
145.133
138.483
131.367
123.549
115.087
106.035
96.0972
85.0279
72.8567
59.5472
45.0242
29.1883
11.9944
-6.88249
-27.6559
-50.5662
-75.939
-104.152
-135.456
-170.21
-208.75
-251.707
-299.59
-352.763
-411.905
-477.684
-550.556
-630.987
-719.503
-816.797
-923.675
-1040.1
-1162.96
-1285.81
-1403.92
192.957
187.306
186.419
182.988
180.476
177.756
174.778
171.508
167.981
164.119
159.846
155.168
149.976
144.185
137.924
131.122
123.504
115.151
106.058
95.9949
84.9543
73.0898
60.2453
46.1468
30.652
13.6726
-4.88373
-24.9595
-47.1034
-71.2902
-97.8737
-127.09
-159.261
-194.943
-234.463
-278.213
-326.485
-379.752
-438.613
-503.496
-574.998
-653.617
-739.662
-833.588
-935.706
-1046.76
-1167.19
-1294.14
-1418.93
-1532.69
185.225
179.753
178.825
174.989
172.428
169.378
166.009
162.327
158.326
153.914
148.99
143.552
137.625
131.067
123.764
115.731
106.96
97.2734
86.7766
75.4348
62.9092
49.077
34.0866
17.9634
0.319802
-19.048
-40.2944
-63.4551
-88.7799
-116.459
-146.686
-179.869
-216.282
-256.289
-300.282
-348.583
-401.711
-459.999
-523.79
-593.707
-670.179
-753.613
-844.237
-942.283
-1048.13
-1162.54
-1286.08
-1415.89
-1541.33
-1648.48
177.109
171.922
171.004
166.76
164.292
160.822
157.045
152.934
148.398
143.34
137.703
131.411
124.427
116.851
108.614
99.5171
89.5655
78.6907
66.5968
53.3514
39.0737
23.4681
6.43304
-12.0142
-32.0312
-53.7487
-77.5045
-103.522
-131.926
-162.933
-196.803
-233.758
-274.129
-318.107
-366.111
-418.753
-476.34
-539.17
-607.553
-681.753
-762.319
-849.592
-943.777
-1044.98
-1153.3
-1269.5
-1394.7
-1526.02
-1650.46
-1747.5
168.661
164.007
163.126
158.805
156.306
152.375
148.215
143.556
138.596
132.803
126.369
119.35
111.57
102.828
93.1662
82.7085
71.3032
58.9844
45.616
30.8914
14.7661
-2.69855
-21.7323
-42.4743
-65.0601
-89.5005
-115.902
-144.593
-175.919
-210.056
-247.269
-287.804
-331.879
-379.809
-431.863
-488.262
-549.42
-615.756
-687.641
-765.423
-849.247
-939.416
-1036.14
-1139.61
-1249.8
-1367.12
-1492.36
-1622.9
-1744.24
-1829.26
160.234
156.351
155.388
151.129
148.429
143.967
139.761
134.684
128.998
122.59
115.43
107.397
98.627
89.043
78.422
66.7381
53.9195
39.8554
24.669
8.28079
-9.66378
-29.1435
-50.1975
-73.0585
-97.8925
-124.918
-154.201
-185.851
-220.066
-257.158
-297.373
-341.009
-388.346
-439.475
-494.697
-554.468
-619.1
-688.757
-763.639
-844.048
-930.323
-1022.66
-1121.12
-1225.68
-1336.45
-1453.78
-1577.91
-1705.78
-1822.83
-1895.46
152.307
149.185
148.198
143.558
140.942
136.223
131.584
126.108
119.911
112.918
105.141
96.4377
86.6899
75.9064
64.1481
51.262
37.277
21.9707
5.22055
-12.885
-32.541
-53.9772
-77.2206
-102.391
-129.587
-158.969
-190.743
-225.118
-262.254
-302.31
-345.503
-392.056
-442.249
-496.413
-554.766
-617.399
-684.478
-756.415
-833.486
-915.829
-1003.66
-1097.12
-1196.42
-1301.66
-1412.46
-1528.82
-1650.41
-1774.21
-1885.77
-1946.38
145.191
142.719
141.287
137.125
134.196
129.26
124.251
118.32
111.603
104.032
95.4817
86.1042
75.784
64.3119
51.636
37.6279
22.3004
5.6581
-12.5153
-32.3127
-53.697
-76.8302
-101.927
-129.143
-158.601
-190.42
-224.697
-261.595
-301.259
-343.862
-389.627
-438.889
-491.84
-548.578
-609.253
-674.119
-743.499
-817.462
-896.226
-980.046
-1068.93
-1163.07
-1262.42
-1366.93
-1476.72
-1591.84
-1711.11
-1830.04
-1933.71
-1983.11
139.2
137.171
135.662
131.649
128.582
123.448
118.109
111.772
104.639
96.5934
87.5726
77.4231
66.1828
53.9114
40.4607
25.7315
9.49811
-8.26968
-27.5907
-48.6917
-71.7156
-96.6644
-123.609
-152.735
-184.158
-218.042
-254.527
-293.76
-335.978
-381.248
-429.617
-481.206
-536.246
-595.016
-657.833
-724.838
-795.963
-871.404
-951.247
-1035.58
-1124.69
-1218.6
-1317.5
-1421.27
-1529.47
-1642.03
-1758.18
-1872.1
-1967.71
-2007.05
134.635
132.818
131.653
127.575
124.282
119.083
113.57
106.925
99.3506
90.7984
81.3772
70.9356
59.1843
46.1748
31.8556
16.2495
-0.799194
-19.5411
-40.0216
-62.268
-86.4379
-112.709
-141.214
-172.075
-205.367
-241.244
-279.803
-321.083
-365.208
-412.374
-462.834
-516.729
-574.161
-635.16
-699.692
-767.897
-840.138
-916.533
-997.182
-1082.14
-1171.31
-1264.79
-1362.45
-1464.43
-1570.71
-1681.08
-1793.84
-1902.72
-1990.17
-2019.11
131.899
130.253
128.998
124.991
121.53
116.215
110.599
103.907
96.1517
87.3695
77.4199
66.5037
54.4813
41.0654
26.2559
9.95954
-7.83937
-27.2568
-48.5377
-71.844
-97.2213
-124.723
-154.505
-186.742
-221.525
-258.98
-299.233
-342.453
-388.766
-438.139
-490.561
-546.191
-605.138
-667.539
-733.593
-803.451
-876.969
-954.129
-1035.05
-1119.74
-1208.21
-1300.54
-1396.87
-1496.93
-1600.68
-1707.73
-1816.23
-1919.82
-1999.8
-2021.66
131.131
129.588
127.854
124.005
120.488
115.194
109.429
102.612
94.8286
86.1432
76.3299
65.0847
52.7044
39.044
23.9376
7.21954
-11.2137
-31.3711
-53.3141
-77.192
-103.277
-131.725
-162.615
-196.112
-232.321
-271.329
-313.194
-357.899
-405.614
-456.555
-510.806
-568.275
-629.047
-693.166
-760.617
-831.283
-905.332
-982.989
-1064.11
-1148.64
-1236.68
-1328.01
-1422.47
-1520.19
-1620.95
-1724.22
-1826.93
-1922.39
-1992.25
-2012.12
132.168
130.377
128.484
124.673
121.108
115.877
110.259
103.461
95.6635
86.9036
77.2085
66.2627
53.939
40.2393
25.031
8.21725
-10.3664
-30.8668
-53.4217
-78.0334
-104.78
-133.842
-165.423
-199.782
-236.969
-277.126
-320.444
-366.872
-416.328
-468.875
-524.604
-583.65
-645.936
-711.288
-779.714
-851.53
-926.634
-1004.73
-1085.99
-1170.27
-1257.17
-1346.92
-1439.4
-1534.3
-1631.6
-1730.49
-1825.74
-1909.21
-1964.25
-1983.61
134.871
132.664
130.727
126.996
123.406
118.287
112.798
106.158
98.7392
90.2803
80.6324
69.9603
57.9553
44.4925
29.4549
12.731
-5.78923
-26.2084
-48.7099
-73.5329
-100.768
-130.458
-162.514
-197.894
-236.148
-277.369
-321.671
-369.203
-420.056
-474.193
-531.577
-591.957
-655.491
-722.355
-792.455
-865.369
-941.028
-1019.66
-1101.04
-1184.94
-1271.35
-1359.92
-1450.76
-1543.36
-1636.53
-1728.49
-1813.99
-1882.73
-1921.23
-1937.4
139.135
136.397
134.389
130.685
127.207
122.282
117.019
110.529
103.399
95.5436
86.4561
76.1489
64.5603
51.5745
37.0687
20.8242
2.65962
-17.5984
-39.9621
-64.6085
-91.6717
-121.455
-154.131
-189.893
-228.852
-271.093
-316.654
-365.487
-417.579
-472.957
-531.815
-594.111
-659.544
-727.744
-798.664
-872.539
-949.372
-1028.82
-1110.66
-1194.76
-1280.64
-1367.95
-1456.16
-1545.63
-1636.07
-1723.22
-1800.42
-1855.91
-1877.12
-1888.16
144.558
141.283
139.25
135.621
132.164
127.582
122.693
116.824
110.22
102.6
94.1037
84.4686
73.5446
61.2147
47.3824
31.8613
14.4944
-5.01459
-26.8674
-51.267
-78.2846
-107.765
-140.735
-176.799
-216.117
-258.838
-305.124
-355.021
-408.518
-465.588
-525.972
-589.594
-656.476
-726.441
-799.308
-874.966
-952.938
-1033.16
-1115.87
-1200.41
-1286.18
-1373.02
-1460.89
-1548.83
-1635.04
-1716.01
-1785.49
-1832.35
-1846.87
-1851.11
150.75
146.878
144.96
141.376
138.081
133.966
129.398
124.077
118.199
111.2
103.352
94.5056
84.499
73.0955
60.1548
45.5004
28.9976
10.4188
-10.462
-33.9302
-60.2868
-89.3019
-122.007
-158.231
-197.965
-241.288
-288.341
-339.176
-393.715
-451.983
-514.102
-579.799
-648.809
-720.793
-795.438
-872.358
-951.886
-1033.87
-1117.51
-1202.91
-1289.85
-1377.27
-1464.46
-1550.92
-1635.64
-1712.67
-1775.35
-1814.18
-1828.92
-1828.39
157.304
152.915
150.979
147.61
144.361
140.556
136.571
131.861
126.667
120.489
113.359
105.453
96.5695
86.4046
74.7394
61.3564
46.018
28.507
8.62349
-13.8231
-39.1886
-67.7118
-99.3101
-135.199
-174.867
-218.464
-265.998
-317.617
-373.397
-433.276
-497.001
-564.568
-635.598
-709.649
-786.418
-866.003
-947.733
-1031.24
-1116.86
-1204.1
-1292.13
-1380.88
-1469.99
-1557.73
-1640.94
-1715.04
-1770.13
-1795.35
-1806.94
-1806.45
163.853
159.176
157.132
154.023
150.906
147.336
143.595
139.399
134.847
129.631
123.772
116.87
108.964
100.056
89.8316
78.0297
64.3331
48.4761
30.1181
9.02366
-15.0425
-42.3935
-73.3515
-108.487
-147.759
-191.363
-239.378
-291.774
-348.44
-409.52
-474.972
-544.344
-617.668
-694.722
-774.602
-856.465
-940.407
-1026.59
-1114.59
-1203.79
-1294.25
-1385.33
-1476.44
-1565.63
-1648.18
-1719.26
-1766.93
-1780.74
-1784.42
-1787.19
170.087
165.463
163.111
160.283
157.368
154.142
150.744
146.959
142.932
138.45
133.544
127.842
121.233
113.673
104.973
94.8549
82.9765
68.9944
52.5653
33.3092
10.8678
-15.0067
-44.7421
-78.6611
-117.317
-160.385
-208.313
-261.268
-319.147
-381.64
-448.921
-520.725
-596.512
-675.917
-758.509
-843.623
-931.126
-1020.24
-1110.59
-1202.94
-1296.35
-1390.34
-1483.67
-1573.91
-1655.85
-1720.89
-1759.55
-1773.14
-1769.21
-1772.19
175.657
171.791
168.668
166.321
163.475
160.625
157.658
154.319
150.811
146.92
142.702
138.061
132.755
126.649
119.56
111.263
101.418
89.5904
75.3932
58.424
38.1284
14.0823
-14.0086
-46.5573
-84.0146
-126.636
-174.357
-227.509
-286.14
-350.219
-419.162
-493.068
-571.529
-654.074
-740.378
-829.399
-919.764
-1012.05
-1106.54
-1201.67
-1297.78
-1394.7
-1490.67
-1582.74
-1663.78
-1721.95
-1745.89
-1757.06
-1754.58
-1756.76
180.112
178.257
173.756
172.164
169.207
166.686
164
161.042
158.01
154.735
151.258
147.488
143.31
138.598
133.111
126.56
118.663
109.088
97.3046
82.8535
65.18
43.6366
17.7387
-12.8459
-48.6141
-90.1379
-137.278
-190.555
-249.778
-315.111
-386.385
-462.769
-544.399
-630.525
-720.359
-812.766
-907.628
-1003.93
-1101.08
-1199.97
-1299.7
-1399.24
-1497.59
-1590.38
-1672.3
-1725.41
-1739.85
-1740.26
-1740.96
-1741.63
183.029
184.329
178.328
177.614
174.445
172.187
169.703
167.095
164.438
161.691
158.959
156.093
152.956
149.46
145.471
140.684
134.728
127.388
118.139
106.398
91.5418
72.9127
49.7261
21.431
-12.4712
-52.4844
-98.2333
-151.501
-211.529
-277.959
-351.329
-430.998
-515.811
-605.491
-699.329
-796.958
-896.055
-995.657
-1096.45
-1198.2
-1301.72
-1405.26
-1505.5
-1597.13
-1671.39
-1714.71
-1731.39
-1725.89
-1726.41
-1726.19
183.015
190.368
182.21
182.381
179.179
177.169
174.852
172.511
170.253
167.878
165.703
163.489
161.234
158.785
156
152.728
148.604
143.413
136.664
127.79
116.1
100.679
80.6801
55.3757
24.1076
-14.0114
-58.2305
-110.821
-171.309
-239.555
-314.78
-397.562
-486.785
-581.582
-680.576
-782.282
-885.821
-991.062
-1095.44
-1199.12
-1305.23
-1411.82
-1515.82
-1611.47
-1679.69
-1701.95
-1712.51
-1709.77
-1710.13
-1709
161.197
189.931
185.629
186.208
183.33
181.515
179.312
176.965
174.876
172.991
171.398
170.028
168.748
167.16
165.27
163.633
161.358
157.922
153.244
146.834
137.912
125.65
109.066
86.9857
58.6286
22.7554
-20.9351
-72.3809
-131.463
-201.128
-280.279
-366.52
-460.499
-560.464
-665.201
-772.96
-883.138
-992.887
-1100.45
-1206.59
-1311.94
-1419.17
-1518.7
-1606.25
-1666.74
-1696.06
-1689.33
-1690.72
-1689.67
-1689.35
169.21
194.743
192.565
189.67
187.348
185.506
183.253
180.919
178.297
176.153
174.289
173.001
172.251
171.857
171.436
170.951
170.217
168.811
166.594
162.945
156.911
147.441
133.7
114.082
87.9484
54.3637
11.7794
-40.4435
-100.121
-168.376
-249.877
-341.494
-440.768
-547.338
-659.415
-775.383
-892.438
-1007.8
-1120.15
-1226.8
-1329.54
-1432.05
-1529.01
-1608.88
-1652.57
-1671.52
-1668.47
-1670.09
-1670.34
-1670.26
181.173
193.827
193.306
191.468
189.69
187.88
185.839
183.774
181.218
178.941
177.188
176.19
175.899
175.984
176.508
177.727
179.057
179.541
178.978
176.614
171.915
163.514
149.967
130.498
103.726
69.2983
25.8359
-27.7308
-91.403
-163.932
-247.276
-343.678
-450.317
-564.743
-684.698
-808.206
-932.126
-1055.08
-1173.53
-1278.22
-1373.32
-1463.78
-1545.08
-1601.07
-1632.65
-1638.76
-1644.75
-1649.17
-1650.81
-1649.57
191.439
194.951
194.144
193.042
191.796
190.223
188.117
185.828
183.829
182.02
180.537
179.776
180.225
181.663
183.554
185.624
188.053
189.704
190.805
189.898
185.588
177.487
162.893
140.359
109.51
69.914
21.2557
-36.872
-103.985
-182.244
-273.008
-375.239
-488.748
-610.924
-740.123
-872.624
-1008.29
-1142
-1258.87
-1354.84
-1436.83
-1502.03
-1547.55
-1576.35
-1594.17
-1610.11
-1623.86
-1633.05
-1637.23
-1636.61
198.616
198.022
197.123
196.168
194.436
192.565
190.988
188.444
186.015
184.506
184.312
185.278
187.118
189.662
192.366
195.286
199.993
203.167
204.576
204.646
200.599
191.326
175.545
150.171
114.799
69.2137
13.0233
-53.9886
-130.42
-215.37
-313.278
-424.894
-548.135
-680.831
-820.545
-967.792
-1115.24
-1250.1
-1357.42
-1440.44
-1497.2
-1526.57
-1534.59
-1545.63
-1565.22
-1589.5
-1610.95
-1626.48
-1633.61
-1633.48
203.724
202.497
201.345
200.317
198.694
196.16
193.328
190.244
187.946
186.399
186.741
189.276
191.745
195.26
201.8
207.338
211.755
218.486
222.96
223.891
220.879
210.018
189.905
159.687
118.607
67.2911
5.39931
-68.2667
-154.501
-252.825
-363.272
-487.359
-622.309
-769.121
-925.267
-1086.32
-1239.86
-1366.74
-1462.77
-1524.94
-1544.17
-1534.29
-1527.24
-1533.71
-1554.48
-1583.31
-1611.74
-1633.98
-1641.82
-1643.12
207.933
207.207
206.81
205.739
202.856
199.037
195.575
191.783
188.293
186.033
185.968
189.614
195.276
201.677
207.987
213.553
221.296
231.528
238.943
241.132
238.624
227.15
203.826
168.838
120.942
60.8118
-9.78944
-92.0358
-186.64
-293.908
-416.461
-556.414
-711.329
-877.088
-1050.35
-1221.18
-1372.81
-1490.76
-1572.22
-1600.18
-1588.91
-1568.4
-1557.6
-1559.87
-1576.33
-1602.88
-1630.94
-1651.49
-1661.31
-1664.42
213.268
213.018
212.147
209.192
205.816
201.857
195.841
189.684
184.242
181.785
183.504
189.654
196.742
195.74
202.694
217.697
228.817
238.209
247.509
253.269
249.758
234.741
205.224
162.459
108.248
41.5433
-37.0948
-127.562
-233.833
-354.86
-490.966
-641.809
-815.029
-1001.03
-1190.38
-1367.36
-1514.11
-1625.39
-1679.72
-1686.18
-1672.17
-1655.61
-1642.38
-1637.52
-1640.55
-1652.1
-1667.35
-1679.42
-1688.3
-1694.28
219.97
218.687
216.418
213.495
207.893
201.05
191.99
182.524
173.285
169.244
172.307
172.513
172.717
181.809
189.423
204.037
219.659
234.395
247.967
254.88
249.154
228.032
190.761
138.041
72.6666
-2.80928
-88.7908
-185.298
-295.123
-424.63
-577.339
-752.167
-943.406
-1150.4
-1349.64
-1525.75
-1671.19
-1761.2
-1801.55
-1812.75
-1809.65
-1797.39
-1779.87
-1762.3
-1747.05
-1734.93
-1727.77
-1724.2
-1724.22
-1734.96
225.334
223.683
221.783
215.601
205.478
194.445
179.683
161.624
143.409
131.734
128.999
133.871
131.686
145.425
167.704
188.816
208.143
221.987
230.354
227.441
209.676
178.509
134.208
78.0821
10.254
-68.4297
-157.158
-259.261
-376.961
-514.817
-674.739
-873.691
-1097.51
-1321.89
-1525.47
-1695.26
-1821.37
-1901.99
-1950.09
-1978.34
-1985.68
-1973.04
-1948.47
-1915.09
-1879.08
-1843.7
-1813.98
-1792.31
-1781.65
-1797.23
229.376
226.572
220.151
211.038
197.336
176.533
150.388
114.258
73.9522
55.0175
59.4418
64.554
97.2839
115.381
135.955
151.676
166.948
178.594
177.351
157.698
122.144
74.9814
21.3554
-36.4775
-99.0618
-169.581
-250.527
-345.373
-466.768
-620.389
-808.205
-1023.9
-1261.18
-1488.58
-1686.77
-1842.56
-1954.2
-2041.12
-2111.56
-2161.33
-2176.65
-2157.9
-2117.74
-2066.6
-2011.72
-1958.39
-1912.63
-1879.71
-1865.25
-1875.63
227.061
221.683
210.88
195.506
171.847
135.428
87.5385
20.7695
-52.9647
-80.0481
-45.0594
-15.8747
1.52481
32.8189