/*--------------------------------*- C++ -*----------------------------------*\
| =========                 |                                                 |
| \\      /  F ield         | OpenFOAM: The Open Source CFD Toolbox           |
|  \\    /   O peration     | Version:  v1912                                 |
|   \\  /    A nd           | Website:  www.openfoam.com                      |
|    \\/     M anipulation  |                                                 |
\*---------------------------------------------------------------------------*/
FoamFile
{
    version     2.0;
    format      ascii;
    class       surfaceScalarField;
    location    "0.49";
    object      phi;
}
// * * * * * * * * * * * * * * * * * * * * * * * * * * * * * * * * * * * * * //

dimensions      [0 3 -1 0 0 0 0];
oriented        oriented;


internalField   nonuniform List<scalar> 
13060
(
0.00630449
0.987765
-0.994069
0.00885854
0.943913
-0.946467
0.010925
0.897234
-0.8993
0.0127923
0.852412
-0.854279
0.0139797
0.810923
-0.812111
0.0143427
0.772311
-0.772674
0.0143767
0.735695
-0.735729
0.0142956
0.700765
-0.700684
0.0140791
0.667818
-0.667601
0.0138167
0.636361
-0.636098
0.0137319
0.60627
-0.606185
0.0138146
0.577587
-0.57767
0.0140892
0.55011
-0.550384
0.0144785
0.523785
-0.524174
0.0148966
0.498586
-0.499004
0.0151865
0.474548
-0.474838
0.0153439
0.451438
-0.451595
0.0156463
0.429199
-0.429501
0.0160165
0.408035
-0.408405
0.0163698
0.387749
-0.388102
0.0166701
0.368417
-0.368718
0.0169224
0.349947
-0.3502
0.0171572
0.332305
-0.33254
0.0174345
0.315576
-0.315854
0.0176025
0.299735
-0.299903
0.0175336
0.28471
-0.284641
0.0172617
0.270323
-0.270051
0.0168694
0.256664
-0.256272
0.0162545
0.24382
-0.243205
0.0154619
0.231649
-0.230856
0.0146741
0.219978
-0.21919
0.0139465
0.209054
-0.208326
0.013167
0.198807
-0.198028
0.0122577
0.189022
-0.188113
0.0113151
0.179708
-0.178766
0.0104394
0.170987
-0.170111
0.00962605
0.162978
-0.162164
0.00872841
0.155389
-0.154491
0.00772717
0.148137
-0.147136
0.00660843
0.141545
-0.140427
0.00539861
0.135306
-0.134097
0.00424445
0.129319
-0.128165
0.00315711
0.123733
-0.122646
0.00214092
0.118602
-0.117586
0.00114161
0.113728
-0.112729
0.000215824
0.109286
-0.10836
-0.00084006
0.104702
-0.103646
-0.00180188
0.101291
-0.100329
-0.00182879
0.0929758
-0.0929488
0.0644016
-0.0662303
0.00676266
0.981002
0.00880438
0.941871
0.0102277
0.89581
0.0107924
0.851847
0.0109312
0.810785
0.0109216
0.77232
0.0107936
0.735823
0.0104603
0.701098
0.0101598
0.668118
0.00990417
0.636616
0.0096748
0.606499
0.00954635
0.577716
0.00949493
0.550161
0.00953537
0.523744
0.00979164
0.498329
0.0103574
0.473982
0.0109384
0.450857
0.0113406
0.428796
0.0116308
0.407745
0.0117797
0.3876
0.0118564
0.368341
0.0118529
0.349951
0.0116596
0.332499
0.0113602
0.315876
0.0110694
0.300026
0.0108302
0.284949
0.0105667
0.270586
0.0103353
0.256896
0.0101713
0.243984
0.00995703
0.231863
0.00957676
0.220358
0.00900192
0.209629
0.00829872
0.19951
0.00759816
0.189723
0.00680079
0.180506
0.00586764
0.17192
0.0049127
0.163933
0.00395303
0.156348
0.0030296
0.149061
0.00219118
0.142384
0.00138104
0.136117
0.000566135
0.130134
-0.000265321
0.124565
-0.00109839
0.119435
-0.00184481
0.114475
-0.00245817
0.109899
-0.0030245
0.105268
-0.00309698
0.101364
-0.00241381
0.0922926
0.0619877
0.00662356
0.974379
0.00808761
0.940407
0.00880139
0.895097
0.00863453
0.852014
0.00809885
0.81132
0.00752289
0.772896
0.00697502
0.736371
0.00640898
0.701664
0.00598612
0.668541
0.00576894
0.636833
0.00568569
0.606582
0.00580964
0.577592
0.00601988
0.549951
0.00624924
0.523515
0.00625583
0.498323
0.00612526
0.474112
0.00615877
0.450823
0.00629735
0.428658
0.00655362
0.407488
0.00673305
0.387421
0.00682464
0.368249
0.00691246
0.349863
0.00706834
0.332343
0.0071524
0.315792
0.00705755
0.300121
0.00675072
0.285256
0.00629634
0.27104
0.00568903
0.257503
0.0048403
0.244833
0.00401222
0.232691
0.00334067
0.22103
0.00278292
0.210187
0.00219234
0.200101
0.00150249
0.190412
0.000846098
0.181162
0.000280715
0.172485
-0.000294434
0.164508
-0.00091073
0.156965
-0.00156169
0.149712
-0.00224144
0.143063
-0.00291273
0.136788
-0.0034765
0.130698
-0.00392742
0.125016
-0.00427066
0.119779
-0.00456314
0.114767
-0.00477605
0.110112
-0.004901
0.105393
-0.00438785
0.100851
-0.00306132
0.0909661
0.0589264
0.00568903
0.96869
0.00627781
0.939818
0.00630155
0.895073
0.00561794
0.852698
0.00490882
0.812029
0.00422491
0.77358
0.00356149
0.737034
0.00301092
0.702215
0.0026401
0.668912
0.00236039
0.637113
0.0021095
0.606833
0.00192221
0.577779
0.00180965
0.550063
0.00185442
0.52347
0.00213178
0.498046
0.00240547
0.473839
0.00252031
0.450708
0.00250512
0.428673
0.00252011
0.407474
0.00250992
0.387431
0.002387
0.368372
0.00203056
0.35022
0.00150736
0.332866
0.0010003
0.316299
0.000649416
0.300472
0.000308218
0.285597
-3.39048e-05
0.271383
-0.000233982
0.257703
-0.00039284
0.244992
-0.000764341
0.233062
-0.00130014
0.221565
-0.00189861
0.210785
-0.00245409
0.200656
-0.00301587
0.190974
-0.00367395
0.18182
-0.00440423
0.173216
-0.00508424
0.165188
-0.00569769
0.157578
-0.0062452
0.150259
-0.00664669
0.143465
-0.00696952
0.137111
-0.00727957
0.131008
-0.00749371
0.12523
-0.00755551
0.11984
-0.00744277
0.114654
-0.00713549
0.109805
-0.00673991
0.104997
-0.00575142
0.0998622
-0.00376298
0.0889776
0.0551634
0.00483775
0.963852
0.00453422
0.940122
0.00379725
0.89581
0.0027632
0.853732
0.00181932
0.812973
0.000903471
0.774496
0.000103426
0.737835
-0.000575734
0.702894
-0.00105122
0.669388
-0.0013031
0.637365
-0.00139786
0.606928
-0.00140431
0.577786
-0.00136883
0.550028
-0.00153901
0.523641
-0.00183294
0.498339
-0.00208085
0.474087
-0.00222719
0.450855
-0.00232359
0.428769
-0.00247136
0.407621
-0.00258536
0.387545
-0.0026409
0.368428
-0.0025924
0.350171
-0.00261328
0.332887
-0.00283194
0.316517
-0.00322486
0.300865
-0.00370571
0.286078
-0.00433128
0.272008
-0.00528574
0.258657
-0.00622484
0.245931
-0.00697725
0.233815
-0.00755519
0.222143
-0.00807041
0.2113
-0.00864903
0.201235
-0.00917961
0.191505
-0.00959858
0.182239
-0.00993355
0.173551
-0.0102143
0.165468
-0.0104481
0.157812
-0.0106719
0.150483
-0.0108704
0.143663
-0.0109575
0.137198
-0.0108825
0.130933
-0.0106801
0.125027
-0.0103631
0.119523
-0.009929
0.11422
-0.00931524
0.109191
-0.00859016
0.104272
-0.00718714
0.0984591
-0.00451619
0.0863067
0.0506473
0.00355572
0.960296
0.00238013
0.941297
0.000991512
0.897199
-6.69579e-05
0.85479
-0.00118226
0.814089
-0.00213239
0.775446
-0.002916
0.738618
-0.00352143
0.703499
-0.00409148
0.669958
-0.00467964
0.637953
-0.00513531
0.607384
-0.00553851
0.578189
-0.0057193
0.550209
-0.00568283
0.523604
-0.00563827
0.498295
-0.00574257
0.474191
-0.00597283
0.451085
-0.00621298
0.429009
-0.00650128
0.40791
-0.00686258
0.387906
-0.00745602
0.369021
-0.00822451
0.35094
-0.00895191
0.333614
-0.00954168
0.317107
-0.0100507
0.301374
-0.0104238
0.286451
-0.0107606
0.272345
-0.0108494
0.258746
-0.0110719
0.246153
-0.011509
0.234252
-0.0120619
0.222696
-0.0126062
0.211845
-0.0130225
0.201651
-0.0134725
0.191955
-0.0139273
0.182694
-0.0143414
0.173965
-0.0146673
0.165794
-0.0149002
0.158045
-0.0150191
0.150602
-0.0149497
0.143594
-0.0147548
0.137003
-0.0144762
0.130654
-0.0140487
0.1246
-0.0134368
0.118911
-0.0126557
0.113439
-0.0116802
0.108216
-0.0105437
0.103136
-0.00867416
0.0965896
-0.00525034
0.0828828
0.0453969
0.00275309
0.957543
0.00108879
0.942961
-0.000794237
0.899082
-0.00229683
0.856293
-0.00369122
0.815483
-0.00482845
0.776584
-0.00581647
0.739606
-0.00662451
0.704307
-0.00724402
0.670577
-0.0077319
0.638441
-0.0081457
0.607798
-0.00855233
0.578596
-0.00903719
0.550694
-0.0095569
0.524124
-0.00998816
0.498726
-0.0103723
0.474575
-0.010806
0.451519
-0.0112709
0.429474
-0.011726
0.408365
-0.01196
0.38814
-0.0120705
0.369132
-0.0122366
0.351106
-0.0125579
0.333936
-0.0130056
0.317555
-0.0136178
0.301986
-0.014369
0.287202
-0.0153336
0.27331
-0.0163716
0.259784
-0.0172022
0.246984
-0.0177887
0.234839
-0.0182144
0.223122
-0.0185871
0.212217
-0.0190141
0.202078
-0.0193125
0.192253
-0.0194637
0.182845
-0.0195057
0.174007
-0.0194397
0.165728
-0.0192477
0.157853
-0.0190066
0.150361
-0.0187227
0.14331
-0.0182897
0.13657
-0.0176928
0.130057
-0.0169706
0.123878
-0.0161164
0.118057
-0.0151552
0.112478
-0.0141157
0.107176
-0.0126105
0.101631
-0.0102465
0.0942256
-0.00601174
0.0786481
0.0393852
0.0018104
0.955733
-0.00043595
0.945208
-0.00257042
0.901216
-0.00421683
0.857939
-0.00563092
0.816897
-0.00688871
0.777841
-0.00792618
0.740644
-0.00885697
0.705238
-0.00977838
0.671499
-0.0106497
0.639312
-0.0113722
0.60852
-0.0119522
0.579176
-0.0123736
0.551115
-0.0127692
0.524519
-0.0132313
0.499188
-0.0136898
0.475034
-0.0141981
0.452027
-0.0147353
0.430012
-0.0154509
0.40908
-0.0163418
0.389031
-0.0173342
0.370124
-0.0183203
0.352092
-0.0192117
0.334827
-0.0199283
0.318271
-0.02047
0.302528
-0.0208688
0.287601
-0.0209754
0.273416
-0.0211386
0.259948
-0.0214491
0.247294
-0.0219055
0.235295
-0.0223856
0.223602
-0.0227497
0.212581
-0.0230126
0.202341
-0.0232399
0.192481
-0.0234254
0.183031
-0.0235201
0.174101
-0.0235138
0.165722
-0.0234055
0.157744
-0.0231153
0.15007
-0.0225913
0.142786
-0.0219191
0.135898
-0.0211365
0.129274
-0.0202037
0.122945
-0.019105
0.116959
-0.0178582
0.111231
-0.0165462
0.105864
-0.0146325
0.099717
-0.0117735
0.0913666
-0.00672669
0.0736013
0.0326585
0.00146588
0.954267
-0.00121724
0.947891
-0.00362411
0.903623
-0.00557292
0.859888
-0.00724106
0.818565
-0.00867157
0.779272
-0.00990758
0.74188
-0.0109119
0.706242
-0.0117611
0.672348
-0.0125921
0.640143
-0.0134056
0.609334
-0.0142217
0.579992
-0.0151424
0.552036
-0.0159713
0.525348
-0.016772
0.499989
-0.017639
0.475901
-0.0185496
0.452938
-0.019394
0.430856
-0.0200095
0.409696
-0.0204695
0.389491
-0.0207996
0.370454
-0.0212531
0.352545
-0.0218364
0.33541
-0.0226025
0.319038
-0.0235105
0.303436
-0.0245636
0.288654
-0.0257116
0.274564
-0.026702
0.260938
-0.027367
0.247959
-0.027799
0.235727
-0.0281313
0.223934
-0.028452
0.212902
-0.0286492
0.202538
-0.0286478
0.192479
-0.0284955
0.182878
-0.0282402
0.173846
-0.0278295
0.165311
-0.0272619
0.157177
-0.026653
0.149462
-0.0259998
0.142133
-0.0251867
0.135085
-0.0242239
0.128312
-0.0231495
0.12187
-0.0219546
0.115764
-0.0206515
0.109928
-0.0190912
0.104304
-0.0169348
0.0975606
-0.013499
0.0879309
-0.00746006
0.0675623
0.0251984
0.000925981
0.953341
-0.00204787
0.950865
-0.00451337
0.906088
-0.00665635
0.862031
-0.00844792
0.820357
-0.00993768
0.780762
-0.0112333
0.743175
-0.0124533
0.707462
-0.0136111
0.673506
-0.0146604
0.641193
-0.0156072
0.61028
-0.0164219
0.580806
-0.0172681
0.552882
-0.0181445
0.526225
-0.018981
0.500826
-0.0198355
0.476755
-0.0207501
0.453852
-0.02189
0.431996
-0.0232286
0.411035
-0.0246892
0.390952
-0.0259992
0.371764
-0.027174
0.35372
-0.0282222
0.336459
-0.0290593
0.319875
-0.0296845
0.304061
-0.0300379
0.289007
-0.0301954
0.274722
-0.0304588
0.261201
-0.0308835
0.248384
-0.0313431
0.236187
-0.0317528
0.224344
-0.03197
0.213119
-0.032073
0.202641
-0.0321241
0.19253
-0.0320851
0.182839
-0.0319186
0.173679
-0.0316516
0.165044
-0.0312555
0.156781
-0.0306264
0.148832
-0.0297538
0.14126
-0.0287441
0.134075
-0.0276258
0.127193
-0.0263756
0.12062
-0.0249915
0.11438
-0.0236167
0.108553
-0.0217193
0.102407
-0.0191721
0.0950134
-0.0149637
0.0837225
-0.00813917
0.0607377
0.0170593
0.00087096
0.95247
-0.00209766
0.953833
-0.00461212
0.908603
-0.00686667
0.864286
-0.0088462
0.822336
-0.0105529
0.782468
-0.0119786
0.744601
-0.0132115
0.708695
-0.0144039
0.674698
-0.0156155
0.642404
-0.0168373
0.611502
-0.0180858
0.582055
-0.0192715
0.554068
-0.0205213
0.527474
-0.021827
0.502131
-0.0231464
0.478074
-0.0243831
0.455089
-0.0254549
0.433068
-0.0263388
0.411918
-0.0271735
0.391786
-0.0279928
0.372583
-0.0288217
0.354549
-0.0298131
0.33745
-0.0309177
0.320979
-0.0321065
0.30525
-0.0334482
0.290349
-0.0347148
0.275988
-0.0356721
0.262159
-0.0362689
0.248981
-0.0366513
0.236569
-0.0369332
0.224626
-0.0371603
0.213346
-0.0372003
0.202681
-0.0370145
0.192344
-0.0366758
0.182501
-0.0362165
0.17322
-0.0355723
0.1644
-0.0347846
0.155993
-0.0339806
0.148028
-0.033127
0.140407
-0.0320987
0.133047
-0.0309214
0.126016
-0.029646
0.119345
-0.0282928
0.113026
-0.0267463
0.107007
-0.0245464
0.100207
-0.0214212
0.0918882
-0.0160385
0.0783398
-0.00740559
0.0521048
0.00965368
0.000677093
0.951793
-0.00222116
0.956732
-0.00476935
0.911151
-0.00707564
0.866592
-0.00890601
0.824167
-0.0106136
0.784176
-0.0121808
0.746168
-0.0137112
0.710226
-0.0151328
0.67612
-0.0164622
0.643734
-0.0177846
0.612825
-0.0191311
0.583401
-0.0204334
0.55537
-0.0216788
0.52872
-0.0229064
0.503359
-0.024179
0.479347
-0.0256287
0.456539
-0.0273231
0.434762
-0.0291548
0.41375
-0.0309737
0.393605
-0.0326782
0.374288
-0.0341703
0.356041
-0.0354097
0.338689
-0.03643
0.322
-0.0371953
0.306015
-0.0376143
0.290768
-0.0379543
0.276328
-0.0384462
0.262651
-0.0390348
0.249569
-0.039545
0.237079
-0.0399185
0.224999
-0.0400939
0.213522
-0.0401504
0.202738
-0.0401442
0.192338
-0.0400015
0.182358
-0.0397112
0.17293
-0.0393128
0.164002
-0.0387492
0.155429
-0.0379148
0.147194
-0.0368497
0.139342
-0.0356868
0.131884
-0.0344304
0.12476
-0.0330512
0.117966
-0.0317021
0.111677
-0.0298577
0.105162
-0.0274111
0.09776
-0.0233826
0.0878597
-0.016208
0.0711652
-0.005406
0.0413028
0.00424768
0.00120902
0.950584
-0.00151186
0.959453
-0.00399597
0.913635
-0.00620203
0.868798
-0.00810708
0.826072
-0.00987452
0.785943
-0.0114636
0.747757
-0.0130626
0.711825
-0.0146796
0.677737
-0.0162234
0.645277
-0.0178602
0.614461
-0.0195484
0.58509
-0.021308
0.557129
-0.0231471
0.530559
-0.0249863
0.505198
-0.0267277
0.481089
-0.0282243
0.458035
-0.0295012
0.436039
-0.0307196
0.414968
-0.031954
0.39484
-0.033252
0.375586
-0.0345885
0.357378
-0.0360324
0.340133
-0.0375064
0.323474
-0.0390739
0.307582
-0.0407148
0.292409
-0.0421387
0.277752
-0.0430975
0.263609
-0.0437532
0.250225
-0.044232
0.237558
-0.044613
0.22538
-0.044865
0.213774
-0.044877
0.20275
-0.0446553
0.192117
-0.0442969
0.182
-0.0438023
0.172435
-0.0431094
0.163309
-0.0422968
0.154617
-0.0414829
0.14638
-0.0405965
0.138455
-0.0395051
0.130793
-0.0382494
0.123504
-0.0370142
0.11673
-0.0355133
0.110176
-0.0333695
0.103019
-0.0302319
0.0946224
-0.0249646
0.0825924
-0.0160345
0.0622351
-0.003403
0.0286713
0.000844683
0.00156311
0.949021
-0.000949942
0.961966
-0.00334229
0.916027
-0.00543399
0.87089
-0.00721614
0.827854
-0.00898517
0.787712
-0.0106829
0.749455
-0.0123867
0.713529
-0.01411
0.67946
-0.0158381
0.647006
-0.0175322
0.616155
-0.0192615
0.586819
-0.0209193
0.558787
-0.0225696
0.532209
-0.0243351
0.506964
-0.0262613
0.483015
-0.0284319
0.460206
-0.0307631
0.43837
-0.0330822
0.417288
-0.0352729
0.39703
-0.037316
0.377629
-0.0390674
0.359129
-0.040594
0.34166
-0.0418974
0.324777
-0.0428562
0.308541
-0.043552
0.293105
-0.0442561
0.278456
-0.0451218
0.264475
-0.0459607
0.251064
-0.046631
0.238228
-0.047104
0.225853
-0.0473901
0.21406
-0.0475697
0.202929
-0.0476301
0.192177
-0.0475087
0.181878
-0.0472416
0.172168
-0.0468774
0.162945
-0.0463315
0.154071
-0.0454981
0.145547
-0.0444512
0.137408
-0.0433466
0.129688
-0.0422215
0.122379
-0.0410482
0.115557
-0.0392876
0.108416
-0.0368875
0.100619
-0.0329834
0.0907183
-0.0262313
0.0758403
-0.0151769
0.0511807
-0.00238052
0.0158749
-0.00153584
0.00210819
0.946913
8.57397e-05
0.963988
-0.0020069
0.91812
-0.00386728
0.87275
-0.00565359
0.82964
-0.00742117
0.78948
-0.00917758
0.751211
-0.01095
0.715301
-0.0126513
0.681161
-0.0144713
0.648826
-0.01641
0.618094
-0.0185358
0.588945
-0.0208065
0.561058
-0.023091
0.534494
-0.0253431
0.509216
-0.0273564
0.485028
-0.0291676
0.462017
-0.0309073
0.44011
-0.0327321
0.419112
-0.034574
0.398872
-0.0364893
0.379544
-0.0384289
0.361069
-0.0403816
0.343612
-0.0423722
0.326768
-0.0444413
0.31061
-0.0464204
0.295084
-0.0480161
0.280052
-0.0491866
0.265646
-0.0501094
0.251987
-0.0508513
0.23897
-0.0514346
0.226437
-0.05185
0.214475
-0.0520109
0.20309
-0.051966
0.192132
-0.0518189
0.181731
-0.0514995
0.171849
-0.0509425
0.162388
-0.0502643
0.153393
-0.0495735
0.144856
-0.0487953
0.13663
-0.0478213
0.128714
-0.0468922
0.12145
-0.0455668
0.114232
-0.0437007
0.10655
-0.0408553
0.0977732
-0.0358537
0.0857167
-0.0265523
0.0665389
-0.011776
0.0364044
-0.00152905
0.00562795
-0.00306489
0.00221552
0.944697
0.000529495
0.965674
-0.00117991
0.91983
-0.00281563
0.874386
-0.00435625
0.831181
-0.00601508
0.791139
-0.0077035
0.7529
-0.00955202
0.71715
-0.0113632
0.682972
-0.0131315
0.650594
-0.0149315
0.619894
-0.016741
0.590754
-0.0186661
0.562983
-0.0207515
0.536579
-0.023104
0.511568
-0.0257429
0.487667
-0.0286044
0.464878
-0.0314628
0.442968
-0.0342964
0.421946
-0.0370107
0.401587
-0.0395092
0.382043
-0.0417611
0.36332
-0.0437352
0.345587
-0.0454485
0.328481
-0.0468194
0.311981
-0.0480466
0.296311
-0.0493583
0.281364
-0.0506862
0.266973
-0.0518615
0.253162
-0.0528461
0.239955
-0.0536339
0.227225
-0.0542579
0.215099
-0.0547257
0.203558
-0.0549843
0.192391
-0.0550142
0.181761
-0.054919
0.171754
-0.0547674
0.162236
-0.0544502
0.153075
-0.0538638
0.14427
-0.0530852
0.135851
-0.0523762
0.128005
-0.0515202
0.120594
-0.050095
0.112807
-0.0479784
0.104433
-0.0441973
0.0939921
-0.0369896
0.0785091
-0.0244192
0.0539685
-0.00738892
0.0193741
-0.000877296
-0.000883677
-0.00394219
0.0027479
0.941949
0.00125847
0.967164
-0.000162271
0.92125
-0.00153203
0.875756
-0.00287931
0.832528
-0.00428491
0.792544
-0.00570195
0.754317
-0.00727192
0.718719
-0.00900852
0.684709
-0.0109722
0.652558
-0.0131459
0.622068
-0.0154795
0.593088
-0.0179443
0.565448
-0.0204347
0.539069
-0.0227961
0.51393
-0.0250442
0.489915
-0.0272683
0.467103
-0.0296215
0.445321
-0.032106
0.42443
-0.034696
0.404176
-0.0373727
0.38472
-0.0400956
0.366043
-0.0427985
0.348289
-0.0455432
0.331226
-0.0482328
0.314671
-0.0506425
0.298721
-0.0526163
0.283338
-0.0542527
0.26861
-0.0556608
0.25457
-0.0568156
0.24111
-0.0577445
0.228153
-0.058469
0.215824
-0.0589429
0.204032
-0.0592885
0.192736
-0.0595552
0.182028
-0.0595883
0.171787
-0.0593286
0.161976
-0.0589271
0.152674
-0.0585061
0.143849
-0.058065
0.13541
-0.0575394
0.127479
-0.056521
0.119575
-0.0549786
0.111264
-0.0521823
0.101637
-0.0464882
0.0882979
-0.0356179
0.0676388
-0.0178353
0.0361859
-0.00376256
0.00530139
-2.27204e-05
-0.00462352
-0.00396491
0.00297645
0.938973
0.00177788
0.968362
0.000607392
0.922421
-0.000671865
0.877035
-0.00185541
0.833712
-0.0031079
0.793797
-0.00439143
0.7556
-0.00581691
0.720145
-0.00720548
0.686098
-0.00876371
0.654116
-0.0103601
0.623664
-0.0121664
0.594894
-0.0142873
0.567569
-0.01679
0.541572
-0.0197021
0.516842
-0.0229294
0.493142
-0.0262307
0.470404
-0.0295669
0.448658
-0.0328978
0.427761
-0.0361487
0.407427
-0.0392351
0.387806
-0.0421224
0.368931
-0.0447293
0.350896
-0.0470781
0.333575
-0.0491968
0.31679
-0.0512848
0.300809
-0.053362
0.285415
-0.0552825
0.27053
-0.0569782
0.256266
-0.0584754
0.242607
-0.0597846
0.229463
-0.0609136
0.216953
-0.0618349
0.204953
-0.0624551
0.193356
-0.0627938
0.182367
-0.0630513
0.172044
-0.0632693
0.162194
-0.0633304
0.152735
-0.0631685
0.143687
-0.062849
0.135091
-0.0622788
0.126909
-0.0612178
0.118514
-0.0591794
0.109226
-0.0547937
0.097251
-0.045802
0.0793062
-0.0297058
0.0515426
-0.0100268
0.0165069
-0.00183293
-0.00289253
0.000175037
-0.00663149
-0.00378987
0.0034067
0.935566
0.00228702
0.969482
0.00128151
0.923426
0.000185736
0.878131
-0.000669317
0.834567
-0.00150585
0.794633
-0.00240473
0.756499
-0.0035535
0.721294
-0.00491126
0.687455
-0.00661721
0.655822
-0.0085713
0.625618
-0.0107475
0.59707
-0.0130412
0.569862
-0.0153542
0.543885
-0.0177206
0.519208
-0.0202425
0.495664
-0.0229941
0.473155
-0.0259619
0.451625
-0.02915
0.43095
-0.0325593
0.410837
-0.0361167
0.391363
-0.0397459
0.37256
-0.0433668
0.354517
-0.0470006
0.337209
-0.0504313
0.32022
-0.0534682
0.303846
-0.0561325
0.288079
-0.0585098
0.272908
-0.0605812
0.258337
-0.0623263
0.244352
-0.0637853
0.230922
-0.0649597
0.218127
-0.0659054
0.205899
-0.0667707
0.194222
-0.0675356
0.183131
-0.067967
0.172476
-0.0680825
0.16231
-0.0680556
0.152708
-0.068004
0.143635
-0.0679133
0.135
-0.0674248
0.126421
-0.0659819
0.117071
-0.0625653
0.105809
-0.0551691
0.0898547
-0.0410581
0.0651953
-0.0189245
0.029409
-0.00405286
0.00163529
-9.26525e-05
-0.00685274
0.000471712
-0.00719585
-0.00331816
0.00346424
0.932102
0.0022943
0.970652
0.00142886
0.924292
0.000418331
0.879141
-0.000371421
0.835356
-0.00110249
0.795364
-0.00170978
0.757107
-0.00230312
0.721887
-0.00300087
0.688153
-0.0038045
0.656625
-0.00491424
0.626728
-0.0065053
0.598661
-0.00867182
0.572029
-0.0114133
0.546627
-0.0145495
0.522344
-0.0179609
0.499076
-0.0215825
0.476777
-0.025305
0.455348
-0.0291207
0.434765
-0.0329776
0.414694
-0.0367558
0.395141
-0.040428
0.376232
-0.0438769
0.357966
-0.0471048
0.340436
-0.0502717
0.323387
-0.0533589
0.306933
-0.0563022
0.291023
-0.0590028
0.275608
-0.0614471
0.260782
-0.0636632
0.246568
-0.0656608
0.232919
-0.0674307
0.219897
-0.0689339
0.207402
-0.07005
0.195338
-0.0708581
0.18394
-0.0716192
0.173237
-0.0723023
0.162993
-0.0728054
0.153211
-0.0730715
0.143901
-0.0729619
0.134891
-0.0721495
0.125608
-0.0698485
0.11477
-0.0641765
0.100137
-0.0518072
0.0774855
-0.0299534
0.0433415
-0.00913783
0.00859342
-0.00145887
-0.00604367
0.00055218
-0.00886379
0.000541259
-0.00718493
-0.0027769
0.0033711
0.928731
0.00204574
0.971977
0.00130422
0.925033
0.000541302
0.879904
0.000100052
0.835798
-0.000224711
0.795689
-0.000701445
0.757583
-0.00111213
0.722298
-0.00191801
0.688959
-0.00289986
0.657607
-0.00405124
0.627879
-0.00533821
0.599948
-0.00684715
0.573538
-0.00872274
0.548502
-0.0109648
0.524586
-0.0136473
0.501758
-0.0167768
0.479907
-0.0202814
0.458852
-0.0241536
0.438637
-0.0283758
0.418916
-0.0328366
0.399602
-0.037438
0.380834
-0.0421093
0.362637
-0.0467078
0.345035
-0.0510229
0.327702
-0.0549802
0.31089
-0.05865
0.294692
-0.062002
0.27896
-0.064969
0.263749
-0.0675099
0.249109
-0.0696468
0.235056
-0.0713852
0.221636
-0.0728705
0.208888
-0.0742977
0.196765
-0.075598
0.18524
-0.0764623
0.174101
-0.0769851
0.163516
-0.0773488
0.153575
-0.0775481
0.144101
-0.0773507
0.134693
-0.075947
0.124204
-0.0717033
0.110527
-0.0613917
0.0898256
-0.0414207
0.0575145
-0.0164638
0.0183846
-0.00397265
-0.00389774
-0.000287888
-0.00972843
0.000756664
-0.00990834
0.000497864
-0.00692613
-0.00227903
0.00289598
0.925835
0.00131595
0.973557
0.000319879
0.926029
-0.000529911
0.880754
-0.000930056
0.836198
-0.00104429
0.795803
-0.000969566
0.757509
-0.000522428
0.721851
-0.000166507
0.688603
-0.000128261
0.657569
-0.00066175
0.628413
-0.00170659
0.600993
-0.00335459
0.575186
-0.0055914
0.550739
-0.00835823
0.527353
-0.0115878
0.504988
-0.0152095
0.483528
-0.019146
0.462789
-0.0233443
0.442836
-0.0277645
0.423336
-0.0323181
0.404156
-0.036856
0.385371
-0.0413213
0.367103
-0.0457274
0.349441
-0.05008
0.332055
-0.0542559
0.315066
-0.0582112
0.298648
-0.0619113
0.28266
-0.065319
0.267156
-0.0684392
0.252229
-0.071264
0.237881
-0.073789
0.224161
-0.0759543
0.211053
-0.0776269
0.198438
-0.078929
0.186542
-0.0801482
0.17532
-0.0812357
0.164603
-0.0820139
0.154353
-0.0823499
0.144437
-0.0815924
0.133936
-0.0783864
0.120998
-0.0702328
0.102373
-0.0532059
0.0727987
-0.0262474
0.0305559
-0.00797645
0.000113685
-0.00234866
-0.00952553
-0.000615516
-0.0114616
7.15658e-05
-0.0105954
0.00020249
-0.00705705
-0.00207654
0.00235594
0.923479
0.000425286
0.975488
-0.000795181
0.92725
-0.0016567
0.881615
-0.00192595
0.836467
-0.00196823
0.795846
-0.00186716
0.757407
-0.00171652
0.7217
-0.00140158
0.688288
-0.00101347
0.657181
-0.000762895
0.628162
-0.000775517
0.601006
-0.00124626
0.575657
-0.00227836
0.551771
-0.00398061
0.529055
-0.00637555
0.507383
-0.00944644
0.486599
-0.0131586
0.466501
-0.0174325
0.44711
-0.0222597
0.428163
-0.0275344
0.409431
-0.0331232
0.39096
-0.0388367
0.372816
-0.0444551
0.355059
-0.0499448
0.337545
-0.0551913
0.320312
-0.0601385
0.303595
-0.0646841
0.287206
-0.0687676
0.27124
-0.072311
0.255773
-0.0753041
0.240874
-0.0777553
0.226612
-0.0798162
0.213114
-0.0818118
0.200433
-0.0836913
0.188422
-0.0851204
0.176749
-0.0860756
0.165559
-0.0865797
0.154857
-0.0861368
0.143994
-0.0838397
0.131639
-0.0775727
0.114731
-0.0631781
0.0879784
-0.0371991
0.0468198
-0.0136843
0.00704112
-0.0050517
-0.00851895
-0.00245606
-0.0121212
-0.00150104
-0.0124166
-0.00087912
-0.0112173
-0.000248383
-0.00768779
-0.00232492
0.00170822
0.921771
-0.00094356
0.97814
-0.00292764
0.929234
-0.0043161
0.883004
-0.00467917
0.83683
-0.00429355
0.79546
-0.00328486
0.756399
-0.00211064
0.720526
-0.00101689
0.687194
-7.68615e-05
0.656241
0.000469835
0.627616
0.000555537
0.60092
0.000115591
0.576097
-0.000980239
0.552867
-0.00278035
0.530856
-0.00527033
0.509873
-0.00844841
0.489777
-0.0122305
0.470283
-0.0165476
0.451427
-0.0213222
0.432938
-0.0264606
0.414569
-0.0318342
0.396334
-0.0373935
0.378376
-0.042996
0.360662
-0.0485923
0.343141
-0.0540388
0.325759
-0.0592846
0.308841
-0.0642532
0.292174
-0.0688662
0.275853
-0.0731031
0.26001
-0.0769491
0.24472
-0.0804066
0.230069
-0.0834043
0.216111
-0.0856895
0.202718
-0.0874008
0.190133
-0.088905
0.178253
-0.0901825
0.166836
-0.0905938
0.155268
-0.0892059
0.142606
-0.0841697
0.126603
-0.0718041
0.102366
-0.0478773
0.0640516
-0.019603
0.0185455
-0.00644957
-0.00611233
-0.00258635
-0.0123822
-0.00140767
-0.0132998
-0.00100609
-0.0128182
-0.000813404
-0.01141
-0.000386165
-0.00811503
-0.00271109
0.00102004
0.920751
-0.00202722
0.981187
-0.00500671
0.932213
-0.00663213
0.884629
-0.00758334
0.837781
-0.00793471
0.795812
-0.00728195
0.755746
-0.00605306
0.719297
-0.00442918
0.68557
-0.00259332
0.654405
-0.000767262
0.62579
0.000786817
0.599366
0.00184365
0.57504
0.00216661
0.552544
0.00161029
0.531412
0.000158326
0.511325
-0.00224627
0.492182
-0.00559656
0.473633
-0.00982288
0.455653
-0.0149181
0.438033
-0.0207477
0.420399
-0.0271072
0.402693
-0.0338282
0.385097
-0.0407423
0.367576
-0.047606
0.350005
-0.0542424
0.332395
-0.0605592
0.315158
-0.0665493
0.298164
-0.0720342
0.281338
-0.0768808
0.264856
-0.0810499
0.248889
-0.0844769
0.233496
-0.0872792
0.218914
-0.0898819
0.205321
-0.0923436
0.192595
-0.0942107
0.18012
-0.0952385
0.167864
-0.0947108
0.154741
-0.090972
0.138867
-0.0806682
0.116299
-0.0594121
0.0811097
-0.027057
0.0316966
-0.00623746
-0.00227409
0.000545125
-0.0128949
0.00233047
-0.0141675
0.00229178
-0.0132612
0.00144291
-0.0119693
0.000440294
-0.0104074
-2.8501e-05
-0.00764623
-0.00273959
8.84758e-05
0.920662
-0.00348434
0.98476
-0.00782726
0.936556
-0.00974061
0.886543
-0.0108085
0.838849
-0.0109253
0.795928
-0.0100401
0.754861
-0.00849153
0.717748
-0.00654026
0.683619
-0.00448712
0.652352
-0.00252197
0.623824
-0.000803492
0.597648
0.000521087
0.573715
0.00117922
0.551886
0.000967313
0.531624
-0.000137428
0.512429
-0.00215915
0.494204
-0.00514369
0.476618
-0.00895078
0.45946
-0.0135487
0.442631
-0.0188719
0.425722
-0.0247676
0.408589
-0.031043
0.391372
-0.0377159
0.374249
-0.044692
0.356981
-0.0516836
0.339387
-0.0584526
0.321927
-0.0648889
0.304601
-0.0709198
0.287368
-0.076527
0.270463
-0.0816358
0.253998
-0.0862217
0.238082
-0.090292
0.222984
-0.0935864
0.208615
-0.0960571
0.195065
-0.0979576
0.182021
-0.0985743
0.168481
-0.0962394
0.152406
-0.0891845
0.131812
-0.0718525
0.0989667
-0.0381308
0.047388
-0.00711854
0.000684313
0.0060239
-0.0154165
0.0109925
-0.0178635
0.0119504
-0.0151254
0.0105738
-0.0118845
0.00755083
-0.00894636
0.00402004
-0.00687663
0.00130859
-0.00493479
-0.00143099
-0.00124554
0.921908
-0.00382779
0.987342
-0.0092885
0.942017
-0.0125287
0.889783
-0.015374
0.841694
-0.0165644
0.797119
-0.0161066
0.754403
-0.0145673
0.716209
-0.0119346
0.680986
-0.00863809
0.649055
-0.00509924
0.620286
-0.00174236
0.594291
0.00122393
0.570749
0.00358266
0.549527
0.00500578
0.530201
0.00515279
0.512282
0.00411592
0.495241
0.00187006
0.478864
-0.00168154
0.463012
-0.00648321
0.447433
-0.0124855
0.431724
-0.0193671
0.415471
-0.0268551
0.39886
-0.0346009
0.381995
-0.0426886
0.365068
-0.0508226
0.347521
-0.0587363
0.32984
-0.0663801
0.312245
-0.0735347
0.294523
-0.0799472
0.276876
-0.0856443
0.259695
-0.0904928
0.242931
-0.0943245
0.226816
-0.0975832
0.211874
-0.100741
0.198223
-0.103125
0.184405
-0.102892
0.168248
-0.0980356
0.147549
-0.0836203
0.117397
-0.0541486
0.0694949
-0.0126082
0.00584766
0.0114433
-0.0233672
0.0217807
-0.0257539
0.025784
-0.0218668
0.0254894
-0.0148309
0.0220333
-0.00842842
0.0163954
-0.00330845
0.00982237
-0.000303567
0.00375236
0.00113523
0.00232136
-0.00374495
0.925653
-0.00539617
0.988993
-0.0119888
0.94861
-0.0151459
0.89294
-0.0182552
0.844804
-0.020039
0.798903
-0.0202749
0.754639
-0.0193652
0.715299
-0.0171969
0.678818
-0.0142373
0.646096
-0.010729
0.616777
-0.0070765
0.590638
-0.00377479
0.567447
-0.000976539
0.546729
0.00121513
0.528009
0.00230403
0.511193
0.00207596
0.495469
0.000759195
0.480181
-0.00170067
0.465472
-0.00526002
0.450992
-0.0099591
0.436423
-0.0157283
0.42124
-0.0226021
0.405734
-0.0302445
0.389637
-0.0383918
0.373216
-0.0469942
0.356123
-0.055522
0.338368
-0.0636447
0.320367
-0.0714125
0.302291
-0.0786966
0.28416
-0.0852538
0.266252
-0.0911758
0.248853
-0.0964821
0.232122
-0.100923
0.216315
-0.103924
0.201224
-0.10547
0.185951
-0.103719
0.166497
-0.0937522
0.137582
-0.0696903
0.0933349
-0.0269841
0.0267887
0.0108222
-0.0319585
0.0269122
-0.0394573
0.0346156
-0.0334574
0.0366922
-0.0239433
0.0349959
-0.0131346
0.0301087
-0.00354122
0.0231315
0.00366874
0.0148633
0.00796466
0.0063692
0.00962931
0.00869056
-0.000138896
0.925791
-0.00397254
0.992827
-0.0118969
0.956534
-0.0178954
0.898938
-0.0229618
0.84987
-0.0260195
0.80196
-0.0271083
0.755728
-0.026397
0.714588
-0.0237253
0.676146
-0.0197053
0.642076
-0.0149031
0.611975
-0.0095613
0.585296
-0.00423574
0.562122
0.000600867
0.541892
0.00446903
0.524141
0.00704336
0.508619
0.00805262
0.494459
0.00738512
0.480848
0.0051692
0.467688
0.0013736
0.454788
-0.0039104
0.441707
-0.0105805
0.42791
-0.0180661
0.413219
-0.0265155
0.398086
-0.0355665
0.382267
-0.0450634
0.36562
-0.0548072
0.348112
-0.064373
0.329933
-0.0734243
0.311342
-0.0817376
0.292473
-0.0891912
0.273706
-0.0954965