/*--------------------------------*- C++ -*----------------------------------*\
| =========                 |                                                 |
| \\      /  F ield         | OpenFOAM: The Open Source CFD Toolbox           |
|  \\    /   O peration     | Version:  v1912                                 |
|   \\  /    A nd           | Website:  www.openfoam.com                      |
|    \\/     M anipulation  |                                                 |
\*---------------------------------------------------------------------------*/
FoamFile
{
    version     2.0;
    format      ascii;
    class       volVectorField;
    location    "0.49";
    object      U;
}
// * * * * * * * * * * * * * * * * * * * * * * * * * * * * * * * * * * * * * //

dimensions      [0 1 -1 0 0 0 0];


internalField   nonuniform List<vector> 
6600
(
(39.8354 -0.0550602 0)
(40.0569 -0.0845128 6.33326e-20)
(40.0943 -0.0359171 4.45403e-18)
(40.1068 0.0195561 0)
(40.1268 0.0744332 5.56849e-18)
(40.1451 0.178135 1.92259e-19)
(40.1684 0.323208 -2.13733e-19)
(40.1985 0.475553 -2.37948e-19)
(40.2415 0.640489 4.7675e-18)
(40.2627 0.827701 -3.13998e-19)
(40.2856 1.01891 0)
(40.3189 1.21484 -5.88854e-18)
(40.3484 1.41361 0)
(40.3789 1.60949 -6.8755e-18)
(40.4075 1.80994 -8.7906e-18)
(40.4309 2.0187 -4.64186e-18)
(40.4158 2.26326 0)
(40.4011 2.51549 0)
(40.3779 2.7711 7.41129e-18)
(40.3201 3.03045 -7.33553e-18)
(40.2505 3.30836 -1.03427e-18)
(40.1762 3.60492 -3.55927e-18)
(40.093 3.92018 -6.69111e-18)
(40.0201 4.25829 1.52174e-18)
(39.9477 4.6027 5.21518e-18)
(39.8456 4.98368 0)
(39.6783 5.42088 1.32039e-17)
(39.5393 5.90588 0)
(39.4311 6.45445 -6.88793e-18)
(39.2464 7.07098 -4.61099e-18)
(39.0194 7.73013 -2.29644e-19)
(38.8245 8.42284 -5.77928e-18)
(38.6386 9.15385 -2.20996e-18)
(38.368 9.94319 4.87975e-18)
(38.0285 10.789 2.72367e-19)
(37.7624 11.6759 6.06524e-18)
(37.5954 12.655 1.05515e-17)
(37.4262 13.6962 1.13799e-17)
(37.1695 14.7896 -8.42568e-18)
(36.9592 16.0109 9.25056e-18)
(36.7493 17.3611 5.07158e-18)
(36.5359 18.792 0)
(36.3863 20.3026 -2.58242e-18)
(36.295 21.9378 5.80992e-18)
(36.2402 23.6394 0)
(36.2441 25.5312 2.31728e-18)
(36.1701 27.361 4.76304e-18)
(36.5041 29.6504 0)
(34.91 30.7769 0)
(25.4879 24.3047 5.09576e-19)
(39.7091 -0.0631102 3.72754e-18)
(40.1091 -0.117331 -4.0931e-18)
(40.1327 -0.0393209 0)
(40.1542 0.0458602 -7.84581e-20)
(40.1684 0.144718 5.64796e-18)
(40.2001 0.282624 1.93356e-19)
(40.2445 0.423163 2.26656e-22)
(40.2787 0.585579 -2.3881e-19)
(40.3319 0.763344 0)
(40.3926 0.947101 -9.19797e-18)
(40.4391 1.14221 -3.30526e-19)
(40.4801 1.34972 5.91463e-18)
(40.5227 1.56214 6.20209e-18)
(40.5517 1.78677 3.73114e-18)
(40.5628 2.01168 -4.62666e-21)
(40.5734 2.22864 5.81312e-19)
(40.5886 2.43126 -5.2392e-18)
(40.5719 2.65721 0)
(40.575 2.9148 0)
(40.575 3.19792 7.53297e-18)
(40.5527 3.50674 1.06451e-18)
(40.5049 3.83475 -5.9299e-18)
(40.4419 4.18918 -5.35108e-18)
(40.3543 4.5931 -6.03455e-18)
(40.2591 5.03233 -5.07733e-18)
(40.1676 5.47706 -1.91894e-18)
(40.0614 5.94643 -2.21187e-18)
(39.8925 6.44274 -2.44204e-18)
(39.6899 6.94708 7.01155e-18)
(39.5376 7.47846 2.00116e-19)
(39.3615 8.06222 -8.8753e-18)
(39.2047 8.70905 8.01509e-18)
(39.0403 9.44923 6.52027e-18)
(38.9083 10.2494 -7.47357e-18)
(38.7957 11.1209 2.82747e-19)
(38.6588 12.0532 -6.20349e-18)
(38.4767 13.0613 6.40947e-18)
(38.2824 14.1373 -3.9321e-18)
(38.1326 15.2762 -3.86314e-18)
(38.0535 16.5167 -4.28792e-18)
(37.9965 17.8036 0)
(37.9232 19.1669 0)
(37.8995 20.6326 -2.27534e-18)
(37.9477 22.2193 2.4507e-18)
(38.0392 23.8593 4.47742e-18)
(38.2139 25.6516 -2.39275e-18)
(38.4187 27.4182 -3.36819e-18)
(38.9454 29.5232 0)
(37.3904 30.203 -2.5517e-19)
(26.62 23.2663 -3.96027e-19)
(39.5863 -0.0587776 -3.03509e-20)
(40.1824 -0.12683 4.17216e-18)
(40.1917 -0.015846 4.52641e-18)
(40.2107 0.0845979 -1.49726e-22)
(40.245 0.209648 -2.8443e-19)
(40.284 0.371987 1.93535e-19)
(40.3366 0.531434 0)
(40.3852 0.706243 0)
(40.4258 0.891549 0)
(40.4667 1.07719 5.06649e-18)
(40.5168 1.26597 -3.31588e-19)
(40.5626 1.46135 -5.95413e-18)
(40.6102 1.65212 -2.92687e-18)
(40.6603 1.8545 6.98918e-18)
(40.7134 2.06682 4.17202e-18)
(40.7291 2.32413 -5.89629e-19)
(40.7481 2.58895 1.1203e-17)
(40.7507 2.85638 -5.91546e-18)
(40.7252 3.11645 -6.65608e-18)
(40.6944 3.39522 0)
(40.6667 3.69946 -4.22104e-18)
(40.6254 4.03443 4.79992e-18)
(40.5886 4.37841 5.41531e-18)
(40.559 4.72782 6.11078e-18)
(40.5186 5.12295 5.16592e-18)
(40.4592 5.56658 -9.36506e-19)
(40.363 6.06117 -1.07968e-18)
(40.3067 6.59383 -3.60527e-18)
(40.244 7.21924 -1.36752e-18)
(40.1144 7.89797 4.70875e-18)
(39.9624 8.58971 1.72126e-18)
(39.8594 9.29344 0)
(39.7777 10.0428 -8.60129e-18)
(39.5759 10.8368 2.38162e-18)
(39.3728 11.6901 5.27451e-18)
(39.2703 12.5913 8.51776e-18)
(39.2794 13.5758 -3.43085e-18)
(39.269 14.6143 -3.46882e-18)
(39.1835 15.6846 3.58464e-19)
(39.1848 16.861 0)
(39.2351 18.1438 -3.79925e-18)
(39.3006 19.4771 0)
(39.4461 20.8606 0)
(39.6904 22.3487 -3.97539e-18)
(40.0048 23.8799 -2.07856e-18)
(40.3898 25.5759 1.13022e-18)
(40.7644 27.2636 1.33398e-18)
(41.3276 29.077 0)
(39.5958 29.3225 -6.26176e-19)
(27.365 21.8511 6.97572e-19)
(39.4813 -0.0431353 -3.7231e-18)
(40.2677 -0.0985137 3.18692e-20)
(40.2608 0.0508043 -4.6499e-18)
(40.2915 0.156834 -4.92316e-18)
(40.3259 0.300398 -5.49957e-18)
(40.3801 0.463981 -2.98858e-18)
(40.4376 0.623207 -2.15086e-19)
(40.4989 0.799847 0)
(40.5653 0.977844 4.25869e-18)
(40.626 1.16054 5.05165e-18)
(40.6837 1.35288 -3.32203e-19)
(40.7317 1.55555 -3.7365e-19)
(40.7853 1.77045 -2.92685e-18)
(40.8194 1.98644 -4.88449e-19)
(40.8503 2.20644 5.00007e-19)
(40.8838 2.41557 -5.91807e-19)
(40.8913 2.65345 6.26952e-19)
(40.9228 2.92299 6.71575e-18)
(40.9506 3.21198 9.21838e-18)
(40.9734 3.50985 0)
(40.9719 3.82853 4.44939e-20)
(40.9555 4.18576 0)
(40.9145 4.60028 0)
(40.8648 5.04656 -1.52504e-18)
(40.8081 5.49949 5.07644e-18)
(40.7758 5.96976 4.83809e-18)
(40.7149 6.48338 -1.07492e-18)
(40.5578 6.99773 4.90625e-18)
(40.4881 7.51296 0)
(40.4315 8.09663 0)
(40.3442 8.74246 3.32008e-18)
(40.2756 9.45337 0)
(40.2363 10.216 2.20024e-18)
(40.2756 11.024 4.61107e-18)
(40.2732 11.9004 -7.77678e-18)
(40.2358 12.8322 -8.45126e-18)
(40.194 13.8254 8.82716e-18)
(40.2215 14.8807 -3.26194e-18)
(40.2978 15.9934 2.92977e-19)
(40.4244 17.1586 3.47787e-19)
(40.6049 18.3483 7.22921e-18)
(40.7813 19.6074 0)
(41.0379 20.9414 0)
(41.4038 22.3457 1.80161e-18)
(41.8489 23.7638 9.93191e-19)
(42.3845 25.288 -6.58138e-19)
(42.9988 26.8815 -2.29355e-19)
(43.5639 28.3992 2.53353e-19)
(41.4996 28.1641 1.75825e-18)
(27.6733 20.1337 0)
(39.3936 -0.0296168 -1.434e-20)
(40.3666 -0.074695 4.05764e-18)
(40.3753 0.118341 4.42576e-18)
(40.4223 0.224762 5.09866e-18)
(40.4567 0.386106 0)
(40.5109 0.54877 2.41128e-20)
(40.5769 0.716394 0)
(40.6365 0.893698 -2.39487e-19)
(40.6859 1.07574 -8.26247e-18)
(40.7431 1.25974 -5.07661e-18)
(40.8153 1.44148 3.31981e-19)
(40.8685 1.63103 3.73558e-19)
(40.9277 1.82477 -4.15731e-19)
(40.9939 2.03202 -3.75202e-18)
(41.0377 2.27934 -8.91323e-18)
(41.0842 2.53789 5.86692e-19)
(41.1096 2.80518 -1.05799e-17)
(41.1174 3.07525 7.47848e-19)
(41.0995 3.37099 -3.35451e-18)
(41.1214 3.68506 -1.88148e-18)
(41.1324 4.02006 5.31129e-18)
(41.133 4.34938 0)
(41.1406 4.69588 0)
(41.1505 5.09413 -2.97469e-18)
(41.1393 5.53149 -3.41287e-18)
(41.1229 6.01481 4.7019e-18)
(41.1261 6.52585 -1.06522e-18)
(41.1489 7.1418 0)
(41.1195 7.80779 1.3368e-18)
(41.0863 8.49848 -1.48761e-18)
(41.0373 9.20071 -3.37435e-18)
(41.0483 9.91766 -5.3777e-18)
(41.0682 10.6948 2.0279e-18)
(40.9689 11.4981 -2.18792e-18)
(40.9219 12.3361 2.43463e-18)
(40.9925 13.2215 0)
(41.1627 14.1729 -2.92191e-18)
(41.305 15.1631 -5.6323e-18)
(41.4319 16.1684 3.17159e-18)
(41.6612 17.2741 3.3808e-18)
(41.9604 18.4413 -3.41469e-18)
(42.2884 19.6195 0)
(42.6975 20.8212 0)
(43.2202 22.1005 8.80723e-19)
(43.8227 23.382 -1.99822e-18)
(44.4959 24.7894 -5.70866e-19)
(45.1709 26.2659 5.40501e-19)
(45.5894 27.4348 -1.0762e-18)
(42.9627 26.7389 5.2246e-19)
(27.4532 18.1162 -3.51717e-18)
(39.3243 -0.0160954 3.66217e-18)
(40.4952 -0.024781 -5.25434e-20)
(40.4994 0.192073 -4.51095e-18)
(40.5736 0.300289 2.47336e-18)
(40.6133 0.467858 0)
(40.6705 0.623781 3.18228e-18)
(40.7356 0.789846 -1.06809e-19)
(40.8165 0.959387 -3.79079e-18)
(40.8877 1.13355 4.26849e-18)
(40.945 1.32388 0)
(41.0111 1.52245 3.32456e-19)
(41.0767 1.73098 2.58118e-18)
(41.1276 1.94572 -3.7211e-18)
(41.1848 2.1566 4.64246e-19)
(41.2414 2.36355 4.72808e-18)
(41.2884 2.5975 -5.84631e-19)
(41.341 2.86181 3.34994e-18)
(41.4029 3.14576 -7.37465e-19)
(41.4485 3.44704 8.35947e-19)
(41.4861 3.76808 2.77011e-18)
(41.5359 4.12759 3.62885e-18)
(41.5603 4.54497 -4.65063e-21)
(41.5618 4.98617 1.32466e-18)
(41.557 5.44506 5.19558e-18)
(41.5563 5.92212 0)
(41.5706 6.42274 -3.79285e-18)
(41.5241 6.93339 1.0486e-18)
(41.4717 7.44054 3.96547e-22)
(41.4991 7.97557 -6.05413e-20)
(41.5376 8.5828 1.44567e-18)
(41.5271 9.25845 -3.09527e-18)
(41.5599 9.98718 3.61334e-18)
(41.6816 10.758 0)
(41.8565 11.5604 0)
(41.9761 12.4229 0)
(42.0621 13.3202 0)
(42.189 14.2563 -3.64495e-18)
(42.4175 15.2452 6.69865e-18)
(42.6806 16.2782 0)
(42.9908 17.3221 2.81973e-20)
(43.3772 18.3773 -2.42911e-19)
(43.7763 19.4731 2.04029e-18)
(44.2563 20.596 -1.13849e-18)
(44.8516 21.74 0)
(45.5412 22.8697 7.35648e-20)
(46.3022 24.068 -8.11447e-19)
(47.1036 25.3988 5.41754e-19)
(47.3179 26.2452 1.27337e-18)
(43.9054 25.0183 5.61629e-18)
(26.6035 15.8191 -4.38157e-18)
(39.2771 0.00459504 -3.6574e-18)
(40.6419 -0.0119591 -8.01575e-18)
(40.6671 0.240141 6.95541e-20)
(40.7439 0.330451 -2.48125e-18)
(40.7812 0.528169 2.64336e-18)
(40.8472 0.67859 -9.54223e-20)
(40.9126 0.848472 3.48403e-18)
(40.9756 1.02232 3.80597e-18)
(41.046 1.20231 4.33161e-18)
(41.1289 1.37996 -1.4717e-19)
(41.1997 1.57021 -2.61982e-18)
(41.2768 1.76423 -3.62478e-20)
(41.3519 1.98013 3.32198e-18)
(41.4327 2.21582 0)
(41.5103 2.47078 0)
(41.587 2.72111 2.91883e-19)
(41.6254 2.99414 4.8933e-18)
(41.6547 3.28971 0)
(41.6801 3.60948 4.12868e-19)
(41.7113 3.9461 -4.19064e-18)
(41.7719 4.26771 -3.67262e-18)
(41.8349 4.61221 1.71069e-18)
(41.8949 4.99613 0)
(41.9476 5.41704 -2.96121e-18)
(41.9866 5.88154 -8.18026e-19)
(42.0461 6.38838 9.13906e-19)
(42.194 6.97945 0)
(42.2393 7.62288 0)
(42.2992 8.3037 -1.38069e-18)
(42.3786 8.9809 -1.29256e-18)
(42.4288 9.66325 4.6472e-18)
(42.5306 10.3647 -1.68256e-18)
(42.5939 11.1187 -1.78509e-18)
(42.6384 11.9027 3.90662e-18)
(42.7463 12.7022 -5.14001e-18)
(42.9747 13.5437 -9.48496e-19)
(43.2847 14.4231 2.45439e-18)
(43.5712 15.3105 -2.53475e-18)
(43.8922 16.1959 2.162e-18)
(44.292 17.1675 4.13231e-20)
(44.7589 18.1589 -2.83433e-19)
(45.2731 19.1379 -1.03886e-18)
(45.8613 20.1226 -4.13246e-19)
(46.5472 21.145 4.59063e-19)
(47.3011 22.1302 7.97313e-21)
(48.1097 23.2138 0)
(48.8183 24.3648 7.52297e-19)
(48.6976 24.8223 2.04269e-18)
(44.237 23.0918 -3.79598e-18)
(24.9973 13.2826 -1.38857e-18)
(39.2611 0.018702 3.54267e-18)
(40.8064 0.0146483 3.96585e-18)
(40.8313 0.288797 3.45185e-20)
(40.9179 0.364286 -2.43087e-18)
(40.9545 0.56385 -5.44045e-18)
(41.0211 0.705588 3.10063e-18)
(41.099 0.875138 -6.84161e-18)
(41.1886 1.04224 1.86521e-18)
(41.2636 1.22267 -4.21547e-18)
(41.3396 1.41146 -2.46942e-18)
(41.4208 1.61699 5.55343e-18)
(41.5051 1.82093 -3.30896e-18)
(41.5759 2.0349 -3.24636e-18)
(41.6632 2.24666 -1.14199e-21)
(41.7467 2.48713 -1.7767e-18)
(41.8508 2.74109 2.27569e-18)
(41.9578 3.01969 -2.60181e-18)
(42.0534 3.31042 0)
(42.138 3.62741 0)
(42.2001 3.99015 0)
(42.2925 4.399 -5.09273e-19)
(42.3749 4.83705 -1.74094e-18)
(42.444 5.29888 -1.86014e-18)
(42.5033 5.77942 -7.09657e-19)
(42.5656 6.26883 0)
(42.5926 6.76423 0)
(42.609 7.25616 1.91205e-18)
(42.6775 7.75637 -1.08096e-18)
(42.788 8.31489 -7.37642e-20)
(42.9109 8.94054 9.00073e-20)
(42.9912 9.6118 3.44459e-20)
(43.1237 10.3156 -1.41414e-18)
(43.4154 11.0556 8.2632e-19)
(43.6869 11.8213 -2.63444e-18)
(43.9079 12.6296 2.01732e-18)
(44.112 13.4501 1.16614e-18)
(44.3797 14.2943 1.38727e-19)
(44.7392 15.1848 -1.05729e-18)
(45.1271 16.0897 -1.24938e-18)
(45.5744 16.9691 -9.99862e-19)
(46.0899 17.8414 -2.62381e-19)
(46.621 18.7207 -4.06509e-19)
(47.2238 19.5884 4.52161e-19)
(47.9322 20.4468 0)
(48.7333 21.2824 0)
(49.6086 22.2372 0)
(50.194 23.0333 0)
(49.643 23.2442 0)
(43.7639 20.8966 -2.53411e-18)
(22.5407 10.5758 4.19161e-18)
(39.2648 0.0294411 -3.5079e-18)
(40.9824 0.00709862 0)
(41.0231 0.308438 0)
(41.1074 0.367416 2.47472e-18)
(41.1435 0.584909 2.66823e-18)
(41.2172 0.716184 -3.10806e-18)
(41.2816 0.889982 3.46114e-18)
(41.3597 1.05563 -1.87116e-18)
(41.4574 1.22556 2.05567e-18)
(41.5577 1.40036 2.47622e-18)
(41.642 1.59359 -2.60482e-18)
(41.7433 1.79587 2.68348e-18)
(41.8463 2.0189 4.86015e-18)
(41.9533 2.26774 0)
(42.0665 2.51248 2.04243e-18)
(42.1633 2.78785 -2.57104e-18)
(42.2617 3.08549 -1.02335e-21)
(42.3391 3.41019 -2.79983e-18)
(42.4176 3.7403 3.52289e-18)
(42.4861 4.06732 0)
(42.5908 4.40409 0)
(42.7216 4.76626 2.17244e-18)
(42.8475 5.172 9.82294e-20)
(42.9641 5.60914 -2.6936e-18)
(43.0899 6.10873 -7.63487e-19)
(43.2748 6.65938 2.50647e-18)
(43.4586 7.26796 -3.7543e-18)
(43.5866 7.92637 3.03041e-18)
(43.7259 8.58233 -1.70515e-18)
(43.9048 9.22255 1.2369e-18)
(44.0525 9.88094 -6.82023e-19)
(44.2204 10.5592 2.32779e-18)
(44.3495 11.2807 -6.81989e-19)
(44.496 12.0005 1.73612e-18)
(44.7276 12.7172 0)
(45.0777 13.4704 8.33543e-19)
(45.4845 14.2431 9.86442e-19)
(45.8823 14.9937 1.59388e-19)
(46.3267 15.7373 -5.48463e-19)
(46.8132 16.5416 7.94862e-19)
(47.3548 17.339 -2.33396e-19)
(47.9532 18.1062 1.41653e-19)
(48.6121 18.8611 5.88988e-20)
(49.3456 19.6099 4.51851e-19)
(50.1351 20.3127 5.43568e-19)
(50.9731 21.1662 -5.09395e-19)
(51.2243 21.6395 0)
(50.0019 21.5426 2.11884e-18)
(42.5065 18.5886 -1.07323e-18)
(19.1322 7.79855 0)
(39.2749 0.0413494 1.3368e-20)
(41.1714 0.0100108 -6.00088e-23)
(41.2041 0.32179 -2.15305e-18)
(41.2967 0.36271 0)
(41.3349 0.589811 -4.14845e-20)
(41.4185 0.708003 -1.41668e-18)
(41.5003 0.875851 0)
(41.5901 1.03423 1.81498e-18)
(41.6767 1.20793 -2.18961e-18)
(41.7833 1.38913 1.42442e-19)
(41.8851 1.58312 2.52032e-18)
(41.9844 1.77716 -1.28867e-18)
(42.0943 1.98268 -1.8053e-18)
(42.2014 2.21224 0)
(42.3337 2.45387 0)
(42.4861 2.72021 0)
(42.6512 2.99432 -2.13711e-18)
(42.8028 3.31246 2.81326e-18)
(42.9395 3.66742 -5.05444e-18)
(43.0678 4.07441 4.31829e-19)
(43.192 4.50799 -9.62532e-19)
(43.3472 4.94909 -1.64949e-18)
(43.4755 5.4237 4.76797e-18)
(43.5956 5.90332 4.0059e-18)
(43.7024 6.38228 0)
(43.7891 6.87955 -2.06926e-18)
(43.9184 7.35167 4.01672e-18)
(44.0715 7.84696 -2.50368e-18)
(44.2494 8.41364 1.06509e-18)
(44.4517 9.031 -5.87218e-19)
(44.6254 9.67741 6.10257e-19)
(44.8745 10.3479 -1.95334e-18)
(45.2611 11.0278 2.17528e-18)
(45.6116 11.7325 -2.15298e-18)
(45.9064 12.4605 -7.22039e-19)
(46.1874 13.1854 1.52506e-18)
(46.5344 13.9164 -1.49067e-18)
(46.9524 14.6856 6.36824e-19)
(47.404 15.4352 1.40732e-20)
(47.9189 16.1366 0)
(48.4755 16.8062 -4.40465e-19)
(49.0499 17.4706 4.12048e-20)
(49.6856 18.0984 1.80556e-19)
(50.4038 18.6947 -7.20223e-19)
(51.2142 19.2904 -1.52606e-19)
(51.9416 19.9324 -9.0003e-19)
(51.9784 20.13 0)
(49.7685 19.6762 2.20303e-18)
(40.0187 15.9834 -3.75173e-18)
(14.6946 4.98965 0)
(39.2914 0.0500616 0)
(41.3512 -0.0139975 0)
(41.4002 0.310242 1.12407e-18)
(41.4959 0.320211 -7.3461e-20)
(41.5257 0.561852 1.3339e-18)
(41.6153 0.663353 1.46578e-18)
(41.6925 0.836349 0)
(41.7948 0.982698 -1.81916e-18)
(41.912 1.14294 1.9854e-18)
(42.032 1.31244 0)
(42.1527 1.50426 -3.76165e-18)
(42.2841 1.70428 -3.42694e-20)
(42.4239 1.93215 -1.94873e-19)
(42.5645 2.15813 2.17271e-19)
(42.6901 2.41991 0)
(42.8293 2.70291 0)
(42.9671 3.00706 1.41864e-18)
(43.1057 3.32659 1.15662e-18)
(43.2437 3.64671 5.39946e-20)
(43.38 3.98015 2.08739e-19)
(43.5278 4.34022 -4.65166e-19)
(43.725 4.71632 2.59441e-19)
(43.9395 5.1329 -2.34786e-18)
(44.1346 5.60433 -9.85786e-19)
(44.3526 6.11193 1.00735e-18)
(44.6072 6.66991 1.49165e-18)
(44.8361 7.30131 -1.32495e-18)
(45.0484 7.93658 -1.34918e-18)
(45.2684 8.54915 0)
(45.5193 9.15249 0)
(45.7466 9.77677 0)
(45.9443 10.4097 1.28269e-18)
(46.1482 11.076 6.1201e-19)
(46.3684 11.719 7.20011e-19)
(46.6794 12.3502 -6.20644e-19)
(47.1022 13.0062 -6.08038e-19)
(47.5571 13.6616 4.07613e-19)
(48.0064 14.2705 -5.69595e-19)
(48.4916 14.8814 2.80045e-19)
(48.9904 15.5273 1.38854e-19)
(49.5305 16.153 1.27513e-20)
(50.1186 16.7191 -1.42177e-20)
(50.7562 17.2617 0)
(51.4504 17.7707 5.52046e-19)
(52.2408 18.3107 -2.84965e-19)
(52.5968 18.6273 5.167e-19)
(52.1029 18.6016 0)
(48.5798 17.6323 -9.95854e-19)
(36.5391 13.2274 6.27205e-19)
(8.97527 2.11684 0)
(39.3117 0.0507267 8.16053e-19)
(41.5344 -0.0225547 0)
(41.5908 0.28825 2.0768e-18)
(41.6742 0.290051 -1.13846e-18)
(41.7135 0.52212 -1.295e-18)
(41.8162 0.598011 4.45111e-20)
(41.9042 0.766316 -4.95377e-20)
(42.0114 0.908667 0)
(42.1379 1.06713 -1.92782e-18)
(42.2791 1.23672 1.01319e-18)
(42.4078 1.41265 1.23707e-18)
(42.5409 1.60521 -1.4654e-18)
(42.6859 1.81748 7.48179e-19)
(42.8553 2.04122 2.11694e-19)
(43.0358 2.28176 -1.18053e-19)
(43.2371 2.53328 0)
(43.4485 2.82103 1.34069e-18)
(43.6599 3.1443 -1.49324e-18)
(43.8508 3.52101 2.40671e-19)
(44.0394 3.93495 -1.29935e-21)
(44.205 4.37115 -2.24365e-19)
(44.3867 4.82538 0)
(44.5815 5.2854 -2.71812e-19)
(44.7662 5.75177 -8.6897e-19)
(44.932 6.23437 -1.36649e-18)
(45.1052 6.70526 -1.49844e-18)
(45.3026 7.15398 0)
(45.5353 7.64823 8.90344e-19)
(45.7725 8.21749 1.33702e-18)
(46.0382 8.80474 -7.45543e-19)
(46.2846 9.41435 1.26847e-18)
(46.6321 10.0314 5.21885e-19)
(47.0658 10.647 -8.09898e-19)
(47.454 11.2865 3.0438e-19)
(47.7814 11.9345 6.2603e-19)
(48.0982 12.5653 3.54012e-19)
(48.4789 13.1916 2.93144e-19)
(48.9074 13.8449 0)
(49.3667 14.4452 1.33741e-19)
(49.8731 14.9812 -3.13437e-19)
(50.3929 15.4681 -2.61094e-20)
(50.9403 15.9628 -5.90032e-20)
(51.5331 16.4041 3.71697e-19)
(52.1958 16.8245 -1.56283e-19)
(52.8467 17.2069 7.01667e-19)
(52.9446 17.3048 -1.30622e-20)
(51.8388 17.0004 0)
(46.5208 15.3468 2.05403e-18)
(31.3981 9.93892 -1.79067e-18)
(4.88141 0.250804 -6.45018e-19)
(39.3151 0.0367528 -8.2618e-19)
(41.6887 -0.061331 8.94483e-19)
(41.7652 0.239304 -1.0197e-18)
(41.8529 0.214552 1.12193e-18)
(41.8883 0.443659 6.18831e-19)
(41.989 0.495178 4.35447e-20)
(42.0841 0.661619 -2.42257e-20)
(42.2198 0.781111 0)
(42.36 0.929276 8.87408e-19)
(42.5165 1.09087 -1.54373e-18)
(42.6902 1.26303 0)
(42.8636 1.46234 8.28148e-20)
(43.0378 1.67024 -2.0764e-19)
(43.2134 1.9112 -7.05255e-19)
(43.3947 2.17684 1.01252e-18)
(43.5842 2.46028 -4.74219e-22)
(43.7753 2.75723 -1.41604e-19)
(43.9723 3.04946 0)
(44.1605 3.35322 7.44835e-19)
(44.3624 3.67861 -8.501e-19)
(44.5847 4.04134 1.07431e-19)
(44.85 4.43243 0)
(45.1311 4.85971 0)
(45.3971 5.3365 6.23629e-19)
(45.689 5.83826 -1.54283e-19)
(45.992 6.40942 9.96688e-19)
(46.2825 7.032 -3.68037e-19)
(46.5484 7.62695 2.02245e-19)
(46.8291 8.18859 -6.82344e-19)
(47.1274 8.76465 -2.31915e-19)
(47.4054 9.34501 -7.81033e-19)
(47.6224 9.94308 4.37857e-19)
(47.8569 10.5513 -2.01685e-19)
(48.12 11.1176 2.38253e-19)
(48.4718 11.6756 2.30152e-19)
(48.9195 12.2522 2.62113e-19)
(49.3638 12.8056 0)
(49.8012 13.3037 -2.2567e-19)
(50.2631 13.8114 7.95182e-20)
(50.7199 14.3377 7.84368e-20)
(51.2044 14.8302 6.65817e-24)
(51.7156 15.2305 -3.49649e-20)
(52.2704 15.6189 -1.98385e-19)
(52.9333 16.0269 -3.17739e-20)
(53.1921 16.1903 -3.63091e-19)
(52.862 16.1106 -1.11562e-18)
(50.4488 15.3743 6.42271e-19)
(42.7565 12.8739 0)
(24.9678 6.56789 -1.0749e-18)
(2.0255 -0.451515 2.09199e-18)
(39.2759 0.0178599 -1.56697e-21)
(41.8311 -0.0861632 -9.0039e-19)
(41.9255 0.186386 2.36498e-19)
(41.9914 0.151049 8.5942e-21)
(42.0481 0.360428 -6.19255e-19)
(42.1599 0.387958 0)
(42.2579 0.548364 0)
(42.4014 0.650113 2.62601e-20)
(42.563 0.790161 -1.43851e-18)
(42.7209 0.939057 5.27776e-19)
(42.8948 1.09838 -3.61343e-20)
(43.0852 1.27503 8.04472e-20)
(43.2888 1.47352 -4.64931e-19)
(43.5161 1.67068 4.68286e-19)
(43.7537 1.9008 -1.33304e-18)
(44.0218 2.15511 2.40237e-19)
(44.2992 2.44785 -2.66103e-19)
(44.5755 2.79382 -7.4893e-20)
(44.8322 3.17549 8.48518e-19)
(45.0651 3.5753 5.71424e-19)
(45.2746 3.99794 1.42753e-21)
(45.4977 4.44083 1.12544e-19)
(45.7587 4.87959 0)
(45.9951 5.33347 4.88464e-19)
(46.2151 5.79754 2.01083e-21)
(46.4509 6.2297 -1.94538e-19)
(46.7133 6.6709 -8.70775e-20)
(46.9889 7.174 -1.75959e-19)
(47.2807 7.7338 0)
(47.5887 8.29216 -9.94988e-20)
(47.8892 8.86485 -5.47575e-19)
(48.2868 9.42578 -4.70563e-19)
(48.7394 9.99179 2.68383e-19)
(49.133 10.5793 -3.42372e-19)
(49.4543 11.1568 2.14403e-19)
(49.7697 11.7054 9.03809e-20)
(50.1514 12.2539 0)
(50.5568 12.8157 1.55231e-19)
(50.9787 13.313 2.13884e-20)
(51.4191 13.7348 -2.38906e-20)
(51.8493 14.1053 -3.1731e-20)
(52.3127 14.5026 9.17278e-20)
(52.8567 14.8787 0)
(53.2444 15.1317 1.13406e-19)
(53.2526 15.172 0)
(52.2277 14.9175 2.58575e-19)
(48.2996 13.7782 -6.09061e-19)
(37.7398 10.5542 3.57578e-19)
(15.9359 3.42818 0)
(-0.282066 -0.277328 9.7994e-20)
(39.205 0.00190773 -1.90397e-22)
(41.936 -0.125976 -2.11406e-22)
(42.0539 0.114806 -2.43824e-19)
(42.1236 0.0555661 -1.04466e-21)
(42.1798 0.245079 -8.00534e-21)
(42.2962 0.254773 -1.29078e-21)
(42.4199 0.401754 1.43679e-21)
(42.5767 0.484719 -3.19034e-21)
(42.7529 0.605577 4.6471e-19)
(42.9504 0.734902 7.76977e-21)
(43.156 0.882706 4.37762e-21)
(43.373 1.04738 -9.7405e-21)
(43.5874 1.25347 -3.46625e-19)
(43.8198 1.47323 3.90857e-19)
(44.0601 1.72523 4.53338e-19)
(44.3019 1.98223 -2.40459e-19)
(44.5569 2.24641 2.58116e-19)
(44.8315 2.51319 8.78957e-21)
(45.1095 2.81187 9.68214e-21)
(45.399 3.14605 0)
(45.7061 3.50172 1.16814e-20)
(46.0214 3.90007 6.51685e-21)
(46.3664 4.33609 -7.28465e-21)
(46.6988 4.80323 0)
(47.0413 5.31274 0)
(47.3909 5.88659 -2.97263e-19)
(47.7104 6.47188 0)
(48.0195 7.02262 1.76193e-19)
(48.3368 7.55822 0)
(48.6629 8.11519 -5.56487e-21)
(48.9635 8.66413 2.1626e-19)
(49.1924 9.22711 -1.29177e-20)
(49.4302 9.78512 2.22822e-19)
(49.6966 10.3051 -1.57162e-20)
(50.0585 10.826 -8.89859e-20)
(50.4944 11.3609 -1.02004e-19)
(50.8899 11.8489 1.89497e-21)
(51.2763 12.2828 0)
(51.6726 12.7197 2.46945e-22)
(52.0474 13.1718 2.64452e-22)
(52.4411 13.587 0)
(52.868 13.9205 -1.65062e-21)
(53.3281 14.2852 -1.12677e-20)
(53.4229 14.4125 -1.04971e-19)
(53.0036 14.4033 -2.46932e-21)
(50.8331 13.9149 0)
(44.3455 12.1785 0)
(29.5217 7.89618 4.31064e-20)
(6.52223 1.26995 -4.29793e-20)
(-2.08903 0.0316359 1.08091e-19)
(39.12 -0.012778 -3.73746e-19)
(42.0116 -0.142056 -4.12339e-19)
(42.1547 0.0563479 -2.2683e-19)
(42.2083 -0.0164948 -2.602e-19)
(42.2813 0.146364 -2.66836e-19)
(42.4045 0.127877 3.06579e-19)
(42.5364 0.259855 0)
(42.711 0.316913 0)
(42.8857 0.429349 -2.17015e-19)
(43.0863 0.537 -7.76884e-21)
(43.3087 0.655881 2.50159e-19)
(43.558 0.792851 1.88651e-20)
(43.8156 0.937292 3.06941e-19)
(44.0921 1.11269 -3.39448e-19)
(44.404 1.31521 -4.13848e-19)
(44.7305 1.56154 0)
(45.0719 1.85889 0)
(45.4082 2.19306 -8.78829e-21)
(45.7306 2.55165 -9.68062e-21)
(46.0177 2.94145 3.22952e-19)
(46.3012 3.35261 -1.16793e-20)
(46.58 3.77473 0)
(46.9023 4.19743 0)
(47.1991 4.64667 5.75665e-20)
(47.4768 5.07756 2.4206e-19)
(47.766 5.49642 -7.82239e-20)
(48.0771 5.95312 0)
(48.3941 6.46704 1.47943e-19)
(48.7217 7.00539 0)
(49.0547 7.53958 5.56498e-21)
(49.3852 8.09057 0)
(49.8066 8.62733 0)
(50.2607 9.17385 -4.01839e-20)
(50.636 9.72883 -2.98969e-20)
(50.9371 10.2513 0)
(51.231 10.742 0)
(51.5814 11.2517 -1.894e-21)
(51.9336 11.7668 0)
(52.2849 12.2276 -2.46785e-22)
(52.6393 12.6085 -1.44614e-20)
(52.9883 12.9566 4.03689e-20)
(53.4301 13.4163 2.02637e-20)
(53.5893 13.6317 1.96568e-20)
(53.4491 13.7409 -1.04075e-19)
(52.256 13.626 -8.47806e-20)
(48.2615 12.7357 4.63886e-19)
(38.411 10.1724 -2.17154e-19)
(19.3344 4.84855 -2.63062e-19)
(1.28478 0.533432 2.18958e-19)
(-2.86725 0.150072 0)
(39.006 -0.0449483 3.72111e-19)
(42.0615 -0.170671 -3.82792e-19)
(42.2124 -0.00969616 2.23293e-19)
(42.2627 -0.0964583 -2.41365e-19)
(42.3473 0.0377689 2.84887e-19)
(42.4819 -0.00538426 -3.16452e-19)
(42.6299 0.0984959 -2.16338e-20)
(42.8224 0.115577 2.40872e-20)
(43.0321 0.201735 1.90243e-19)
(43.2548 0.284787 2.96702e-20)
(43.499 0.390404 -2.66892e-19)
(43.7628 0.530052 -5.71497e-19)
(44.0366 0.684529 3.04154e-19)
(44.3165 0.872333 3.18178e-19)
(44.6059 1.06389 1.21849e-18)
(44.9045 1.2733 -5.36767e-20)
(45.2375 1.48541 5.99154e-20)
(45.5909 1.73316 -5.10805e-19)
(45.9682 2.01756 -7.09793e-20)
(46.3398 2.33858 -2.43293e-19)
(46.7191 2.69367 0)
(47.1109 3.10211 0)
(47.5111 3.53637 0)
(47.9246 4.01394 0)
(48.3217 4.54458 -2.43939e-19)
(48.7107 5.11055 4.83925e-19)
(49.0686 5.65775 0)
(49.406 6.1873 -4.1801e-19)
(49.7458 6.72507 0)
(50.0875 7.27348 0)
(50.3926 7.80261 2.95078e-19)
(50.6271 8.34662 -1.45076e-19)
(50.8461 8.8817 3.01836e-19)
(51.0921 9.38645 -7.8644e-20)
(51.4453 9.90541 0)
(51.8474 10.4426 0)
(52.1959 10.9045 -2.88778e-20)
(52.5377 11.3246 6.23024e-20)
(52.8709 11.7359 0)
(53.1629 12.1611 -7.43868e-20)
(53.506 12.6071 1.38825e-19)
(53.7777 12.9653 -2.23204e-19)
(53.7608 13.1317 1.4686e-19)
(53.0977 13.2289 -2.37666e-19)
(50.6097 12.8278 6.26407e-19)
(43.9024 11.3526 -5.86455e-19)
(29.5335 7.78379 3.97695e-19)
(6.90082 2.0295 -8.88427e-19)
(-2.37396 0.484506 1.07522e-18)
(-3.16022 0.0992463 -6.93737e-19)
(38.8564 -0.0658052 6.97783e-19)
(42.082 -0.193235 2.34639e-20)
(42.2402 -0.0651806 0)
(42.2908 -0.160445 4.96949e-19)
(42.3769 -0.0532209 1.10972e-18)
(42.5049 -0.117595 -3.78828e-20)
(42.6589 -0.0354246 0)
(42.8501 -0.0465676 0)
(43.0575 0.0130851 5.1593e-20)
(43.2985 0.0508701 -5.74738e-20)
(43.5659 0.108478 9.99443e-19)
(43.8606 0.176942 -5.33149e-19)
(44.1823 0.27321 -6.30707e-19)
(44.5366 0.403978 6.70612e-19)
(44.9147 0.575263 -7.67528e-19)
(45.3018 0.805444 -1.02472e-19)
(45.6912 1.06493 1.00199e-18)
(46.0866 1.36078 1.48087e-18)
(46.476 1.6841 0)
(46.8374 2.04839 -5.77006e-19)
(47.1852 2.43246 -6.26499e-19)
(47.5318 2.82855 0)
(47.9178 3.25044 7.31686e-19)
(48.2765 3.67082 0)
(48.6162 4.09808 0)
(48.975 4.53465 -4.82381e-19)
(49.3401 5.03076 -2.3384e-19)
(49.6965 5.55459 -4.90111e-19)
(50.0514 6.07876 0)
(50.3994 6.61539 0)
(50.7417 7.16399 -1.63171e-19)
(51.1753 7.7042 -1.46183e-19)
(51.6225 8.26 -3.68878e-19)
(51.9921 8.80767 2.59624e-20)
(52.2757 9.30926 2.98822e-20)
(52.5434 9.78014 1.70323e-19)
(52.8478 10.2965 -4.0125e-20)
(53.1331 10.8075 -6.97367e-20)
(53.4148 11.281 4.19072e-20)
(53.7235 11.697 3.91555e-20)
(54.0486 12.1376 1.86613e-19)
(54.1532 12.3997 5.89268e-20)
(53.8124 12.618 -3.00915e-19)
(52.252 12.5435 -2.19309e-19)
(47.5768 11.6524 -6.81329e-19)
(36.9065 9.29913 7.9973e-19)
(17.116 4.52939 -3.58344e-19)
(0.277302 1.11926 0)
(-4.29777 0.692862 0)
(-3.01791 0.290467 1.33857e-19)
(38.6744 -0.0947602 -2.04341e-18)
(42.0765 -0.216798 -7.39951e-19)
(42.2407 -0.118384 8.43589e-19)
(42.2878 -0.220848 -2.97468e-20)
(42.3738 -0.148147 -2.12043e-18)
(42.5092 -0.238958 3.68075e-20)
(42.6683 -0.194734 0)
(42.8794 -0.24641 1.43175e-18)
(43.0967 -0.212381 5.0059e-20)
(43.3557 -0.203796 -4.29001e-22)
(43.6341 -0.1501 -2.02841e-18)
(43.9379 -0.0833497 1.03436e-18)
(44.2564 0.00688985 9.51751e-22)
(44.5865 0.11049 -5.86502e-19)
(44.9472 0.228247 0)
(45.3375 0.367117 0)
(45.7509 0.538247 -7.78326e-19)
(46.1978 0.751347 -1.08771e-18)
(46.6644 1.0005 0)
(47.1252 1.30137 5.752e-19)
(47.5941 1.65742 6.24424e-19)
(48.0556 2.0607 1.60701e-19)
(48.5174 2.49857 -2.26676e-19)
(49.0125 2.994 -5.45048e-19)
(49.4574 3.53394 -2.06022e-19)
(49.8872 4.08724 -2.07097e-19)
(50.2854 4.62675 7.00685e-19)
(50.6607 5.17417 4.91335e-19)
(51.0278 5.73467 -4.64435e-19)
(51.3797 6.28421 4.7246e-19)
(51.7015 6.82188 0)
(51.9432 7.37349 0)
(52.1396 7.91055 3.86086e-20)
(52.3608 8.42335 2.32676e-19)
(52.7003 8.9779 -1.60436e-19)
(53.0708 9.53126 -1.61533e-19)
(53.3746 9.97603 5.33274e-20)
(53.6948 10.4063 -2.81822e-20)
(54.0041 10.8312 -1.06372e-19)
(54.2774 11.3011 -1.37993e-19)
(54.4775 11.7561 -5.36598e-20)
(54.2996 12.0455 2.33698e-19)
(53.2541 12.134 0)
(49.9622 11.7491 2.16961e-19)
(41.8838 10.1497 2.62688e-19)
(25.7144 6.52622 2.89558e-19)
(4.54261 1.92908 1.00937e-18)
(-3.49654 1.01648 -3.78421e-19)
(-4.98049 0.705596 0)
(-2.70444 0.388574 0)
(38.4787 -0.111009 3.9519e-20)
(42.0563 -0.226825 1.50982e-18)
(42.2157 -0.148917 -8.68289e-19)
(42.26 -0.264988 1.82827e-18)
(42.3346 -0.211124 1.10877e-18)
(42.4497 -0.314979 -5.20368e-23)
(42.6022 -0.293424 -3.9801e-20)
(42.7988 -0.382444 -1.34089e-18)
(43.0146 -0.395986 -9.79036e-20)
(43.2773 -0.451448 -1.07479e-19)
(43.5725 -0.479832 9.68053e-19)
(43.9214 -0.488021 1.3207e-19)
(44.3084 -0.462472 1.13956e-18)
(44.7208 -0.387102 1.24887e-18)
(45.1571 -0.26457 -1.71506e-19)
(45.6034 -0.10609 1.91309e-19)
(46.0653 0.0962917 0)
(46.5352 0.33474 8.78791e-19)
(47.0082 0.609486 0)
(47.4573 0.927866 0)
(47.8895 1.27628 0)
(48.3266 1.6578 2.98992e-19)
(48.7678 2.06775 -1.01198e-18)
(49.1994 2.47542 7.25154e-19)
(49.6146 2.91625 0)
(50.0403 3.39641 1.8992e-19)
(50.4641 3.91862 5.76397e-19)
(50.8648 4.45304 8.18432e-19)
(51.2493 4.99939 6.70542e-19)
(51.6211 5.55552 -4.88366e-19)
(51.9749 6.13155 4.424e-19)
(52.4016 6.70292 -2.31191e-19)
(52.853 7.28383 -3.76335e-19)
(53.2221 7.85802 0)
(53.491 8.36587 -9.76128e-20)
(53.7412 8.86412 1.74038e-19)
(54.0278 9.41851 -5.32722e-20)
(54.2693 9.94121 2.78772e-20)
(54.5307 10.4591 6.40991e-20)
(54.7941 10.9723 0)
(54.8163 11.348 2.2753e-19)
(54.1648 11.5426 -3.06536e-19)
(51.9141 11.5624 7.3314e-19)
(45.8465 10.6698 0)
(32.724 8.05523 -1.03074e-18)
(10.6395 3.40958 2.84104e-19)
(-1.71499 1.51425 -3.25201e-19)
(-5.15595 1.17309 -3.72743e-19)
(-4.97172 0.888592 8.46689e-19)
(-2.25148 0.415082 2.30999e-21)
(38.267 -0.124586 1.30822e-18)
(42.0268 -0.228184 -1.42893e-18)
(42.1702 -0.168526 1.59792e-18)
(42.2133 -0.299632 -3.6075e-18)
(42.2704 -0.271899 2.05239e-18)
(42.3847 -0.405866 -1.39681e-19)
(42.5326 -0.413953 1.30812e-18)
(42.7183 -0.525913 0)
(42.9457 -0.564164 1.51099e-18)
(43.2013 -0.627889 -1.77314e-18)
(43.4841 -0.666612 1.33615e-21)
(43.8071 -0.703137 1.28384e-19)
(44.1643 -0.733183 -1.13574e-18)
(44.5647 -0.73661 -3.25293e-20)
(45.0009 -0.715234 -1.15582e-18)
(45.4761 -0.655488 -1.84292e-19)