/*--------------------------------*- C++ -*----------------------------------*\
| =========                 |                                                 |
| \\      /  F ield         | OpenFOAM: The Open Source CFD Toolbox           |
|  \\    /   O peration     | Version:  v1912                                 |
|   \\  /    A nd           | Website:  www.openfoam.com                      |
|    \\/     M anipulation  |                                                 |
\*---------------------------------------------------------------------------*/
FoamFile
{
    version     2.0;
    format      ascii;
    class       volScalarField;
    location    "0.12";
    object      p;
}
// * * * * * * * * * * * * * * * * * * * * * * * * * * * * * * * * * * * * * //

dimensions      [0 2 -2 0 0 0 0];


internalField   nonuniform List<scalar> 
6600
(
61.6847
56.9549
54.5219
53.0382
52.2325
51.8862
51.8258
52.1056
52.7022
53.6566
54.8639
56.3985
58.2451
60.5439
63.181
66.24
69.6442
73.3978
77.526
82.003
86.8152
91.9302
97.3567
103.027
108.86
114.785
120.707
126.63
132.414
137.894
142.956
147.404
151.002
153.569
154.854
154.455
151.975
147.086
139.378
128.337
113.449
94.1078
69.7386
39.6715
3.08749
-40.8405
-92.2945
-152.058
-221.854
-294.253
58.381
53.3573
51.4961
49.7456
48.625
47.9975
47.649
47.6231
47.904
48.5125
49.3418
50.5051
52.0136
53.9149
56.2766
58.9124
61.8893
65.1448
68.7
72.5771
76.7111
81.0988
85.727
90.5482
95.4672
100.455
105.249
109.776
114.082
118.04
121.365
123.962
125.609
126.03
125.013
122.084
116.89
109.077
98.2412
83.874
65.413
42.2447
13.7866
-20.6017
-61.6694
-110.253
-166.52
-230.589
-303.126
-376.265
53.8173
48.45
47.4137
45.437
44.126
43.2552
42.683
42.4337
42.5337
42.8879
43.5313
44.4814
45.7323
47.1521
49.08
51.373
53.8952
56.6765
59.713
63.0013
66.495
70.1689
73.9938
77.9181
81.8536
85.6747
89.3324
92.6639
95.5664
97.9116
99.4866
100.106
99.5988
97.7046
94.132
88.5047
80.3979
69.4781
55.346
37.4839
15.3504
-11.6331
-44.0285
-82.4181
-127.406
-179.767
-239.679
-306.397
-378.817
-448.547
48.4203
42.6568
42.2182
40.0203
38.7118
37.6616
36.8946
36.4537
36.3234
36.4784
36.9064
37.6259
38.6951
40.0057
41.3919
43.1929
45.2516
47.5615
50.0771
52.7693
55.6062
58.5591
61.5532
64.5405
67.4922
70.2752
72.6012
74.4379
75.8168
76.5863
76.4127
75.0545
72.3341
68.0172
61.8062
53.365
42.3096
28.2594
10.8204
-10.4717
-36.1217
-66.6274
-102.459
-144.095
-192.02
-246.918
-308.855
-376.239
-446.643
-510.596
42.1635
36.1298
36.0244
33.4809
32.2314
31.1183
30.218
29.5822
29.2658
29.2171
29.4881
29.9659
30.6149
31.6002
32.7812
34.0612
35.5674
37.318
39.2468
41.2844
43.4172
45.5718
47.6751
49.6528
51.4144
52.9464
54.1155
54.6578
54.4425
53.4278
51.4197
48.1074
43.2328
36.5471
27.7681
16.5984
2.67752
-14.339
-34.8199
-59.1896
-87.8472
-121.19
-159.6
-203.44
-253.047
-308.905
-371.021
-437.642
-504.667
-560.958
35.2963
28.9464
28.8951
26.0205
24.7017
23.4557
22.4289
21.6314
21.0864
20.8465
20.817
20.9849
21.3857
21.8658
22.5763
23.4531
24.4106
25.521
26.7495
28.0574
29.39
30.6692
31.835
32.7888
33.4665
33.7455
33.4919
32.567
30.8579
28.1708
24.2994
19.0159
12.0561
3.14759
-8.00025
-21.6685
-38.1317
-57.7037
-80.7231
-107.516
-138.401
-173.669
-213.575
-258.37
-308.308
-363.709
-424.527
-488.915
-551.089
-598.123
27.574
21.0714
20.7012
17.5201
16.1453
14.7512
13.5722
12.6161
11.8645
11.2891
10.8932
10.694
10.5991
10.727
10.9478
11.1908
11.5377
11.933
12.372
12.8471
13.2762
13.5999
13.7379
13.5854
13.0409
12.0885
10.6069
8.34659
5.09229
0.696523
-4.98006
-12.1418
-21.0487
-31.9708
-45.1721
-60.9008
-79.4216
-100.975
-125.82
-154.223
-186.39
-222.51
-262.752
-307.281
-356.305
-410.126
-468.333
-529.004
-585.422
-622.025
18.6064
12.1007
11.5608
8.04906
6.58105
4.99205
3.59111
2.41128
1.40631
0.545094
-0.253272
-0.940801
-1.51158
-2.08432
-2.52936
-2.89508
-3.26294
-3.64799
-4.02818
-4.49498
-5.04174
-5.75411
-6.67517
-7.91888
-9.58588
-11.8139
-14.7259
-18.4127
-23.0429
-28.8667
-36.1245
-44.9845
-55.6099
-68.2149
-83.0528
-100.352
-120.301
-143.111
-168.988
-198.097
-230.579
-266.545
-306.062
-349.203
-396.15
-447.299
-502.35
-558.429
-608.07
-634.381
8.39299
2.23647
1.51668
-2.14911
-3.79062
-5.66466
-7.31808
-8.81366
-10.1894
-11.5086
-12.7846
-14.0609
-15.298
-16.4473
-17.6409
-18.8191
-20.0136
-21.2155
-22.5162
-23.9234
-25.492
-27.2671
-29.308
-31.7055
-34.5825
-38.0047
-42.0994
-47.0368
-53.0238
-60.2398
-68.8381
-79.0001
-90.9249
-104.795
-120.777
-139.041
-159.773
-183.12
-209.213
-238.176
-270.07
-304.93
-342.78
-383.67
-427.707
-475.173
-526.301
-577.559
-620.812
-638.892
-3.1298
-8.63573
-9.5661
-13.1121
-14.8589
-17.0908
-19.1004
-20.994
-22.8682
-24.7072
-26.5973
-28.4952
-30.4504
-32.5154
-34.5094
-36.5232
-38.6125
-40.7478
-43.0011
-45.4286
-48.0137
-50.8424
-53.954
-57.4004
-61.2843
-65.7935
-71.111
-77.3094
-84.443
-92.6909
-102.297
-113.442
-126.257
-140.871
-157.442
-176.109
-196.966
-220.13
-245.701
-273.727
-304.239
-337.239
-372.677
-410.518
-450.898
-494.267
-540.302
-586.321
-624.824
-638.681
-15.816
-20.5698
-21.6242
-24.9029
-26.6884
-29.2523
-31.644
-34.0221
-36.4332
-38.9689
-41.5598
-44.273
-46.9897
-49.7355
-52.7283
-55.7719
-58.8598
-62.0475
-65.3253
-68.7315
-72.3466
-76.2051
-80.3434
-84.8485
-89.8083
-95.2907
-101.437
-108.425
-116.424
-125.566
-135.915
-147.607
-160.815
-175.686
-192.313
-210.77
-231.157
-253.533
-277.927
-304.373
-332.86
-363.339
-395.748
-430.009
-466.037
-504.557
-544.374
-583.383
-615.239
-628.619
-29.1133
-33.1595
-34.1889
-37.3051
-39.2262
-42.0398
-44.9282
-47.8825
-50.8897
-54.1359
-57.5149
-61.0072
-64.8026
-68.6295
-72.45
-76.4718
-80.6279
-84.8603
-89.2203
-93.7059
-98.3498
-103.17
-108.239
-113.613
-119.371
-125.632
-132.544
-140.234
-148.764
-158.239
-168.851
-180.738
-193.974
-208.627
-224.797
-242.571
-261.963
-283
-305.702
-330.035
-355.958
-383.424
-412.302
-442.359
-473.82
-506.402
-538.517
-567.135
-586.245
-597.52
-42.6035
-46.0192
-46.9755
-50.1121
-52.2228
-55.3492
-58.5487
-62.135
-66.0702
-69.9985
-74.2932
-78.725
-83.194
-88.1013
-93.1637
-98.2871
-103.558
-108.949
-114.405
-119.968
-125.593
-131.374
-137.325
-143.506
-150.003
-156.877
-164.208
-172.106
-180.778
-190.381
-200.937
-212.524
-225.27
-239.283
-254.598
-271.215
-289.184
-308.5
-329.105
-350.952
-373.97
-398.032
-422.948
-448.535
-474.789
-500.504
-523.948
-541.315
-547.797
-553.803
-55.9361
-58.7362
-59.6879
-62.8805
-65.3586
-68.9556
-72.6134
-76.6036
-81.1824
-86.2353
-91.3942
-97.0094
-102.81
-108.603
-114.754
-121.058
-127.47
-134.026
-140.67
-147.272
-153.926
-160.62
-167.351
-174.168
-181.142
-188.362
-195.944
-203.976
-212.504
-221.659
-231.651
-242.607
-254.557
-267.527
-281.57
-296.745
-312.994
-330.272
-348.545
-367.705
-387.601
-408.063
-428.833
-450.108
-470.781
-489.54
-504.965
-514.967
-519.926
-521.748
-68.6446
-70.7898
-71.9508
-75.2675
-78.0798
-82.1794
-86.4784
-91.4039
-96.5485
-102.337
-108.689
-115.156
-122.109
-129.416
-136.783
-144.351
-151.988
-159.814
-167.568
-175.333
-183.039
-190.624
-198.128
-205.558
-212.956
-220.38
-227.893
-235.581
-243.625
-252.188
-261.323
-271.138
-281.793
-293.388
-305.93
-319.348
-333.652
-348.792
-364.635
-381.063
-397.94
-415
-432.116
-448.935
-464.703
-478.277
-488.072
-492.919
-498.748
-499.454
-80.595
-81.8178
-83.2402
-86.797
-90.0579
-94.6361
-99.4854
-105.153
-111.467
-118.159
-125.455
-133.404
-141.601
-150.092
-158.861
-167.83
-176.848
-185.933
-195.005
-204.004
-212.77
-221.305
-229.588
-237.545
-245.194
-252.588
-259.853
-267.084
-274.351
-281.786
-289.635
-298.1
-307.26
-317.162
-327.867
-339.436
-351.759
-364.711
-378.212
-392.145
-406.299
-420.39
-434.284
-447.586
-459.555
-469.012
-474.895
-478.627
-480.809
-482.31
-90.9999
-91.9373
-93.3493
-97.0986
-100.595
-105.895
-111.535
-117.894
-125.226
-133.207
-141.5
-150.38
-160.029
-170.088
-180.463
-190.921
-201.528
-212.051
-222.523
-232.814
-242.833
-252.467
-261.586
-270.126
-278.069
-285.453
-292.339
-298.79
-304.968
-311.145
-317.432
-324.01
-331.168
-339.112
-347.903
-357.451
-367.735
-378.691
-390.15
-401.96
-413.866
-425.49
-436.676
-447.06
-455.987
-462.423
-465.752
-469.001
-469.961
-471.098
-98.7048
-99.6404
-101.368
-105.539
-109.383
-115.325
-121.736
-129.097
-137.253
-146.311
-156.244
-166.626
-177.479
-188.894
-200.834
-213.173
-225.508
-237.802
-249.937
-261.789
-273.221
-284.062
-294.173
-303.432
-311.736
-319.038
-325.413
-331.016
-335.979
-340.42
-344.694
-349.189
-354.149
-359.782
-366.271
-373.753
-382.144
-391.276
-401.081
-411.368
-421.348
-430.708
-439.616
-447.493
-453.489
-457.028
-460.328
-461.684
-462.695
-463.218
-103.325
-104.363
-106.856
-111.467
-115.981
-122.736
-129.857
-138.155
-147.364
-157.415
-168.409
-180.388
-193.011
-206.235
-219.912
-233.98
-248.312
-262.617
-276.725
-290.436
-303.544
-315.9
-327.288
-337.52
-346.429
-353.908
-359.983
-364.691
-368.18
-370.816
-372.847
-374.607
-376.656
-379.498
-383.473
-388.65
-395.038
-402.63
-411.354
-420.275
-428.509
-436.488
-443.53
-448.606
-451.426
-453.55
-455.152
-456.501
-457.554
-457.834
-105.294
-106.941
-110.109
-114.868
-120.248
-127.518
-135.195
-144.722
-155.018
-166.358
-178.685
-191.927
-206.077
-221.043
-236.786
-253.032
-269.521
-286.093
-302.473
-318.404
-333.665
-347.95
-361.002
-372.588
-382.466
-390.42
-396.327
-400.251
-402.389
-402.894
-402.183
-400.904
-399.637
-399.041
-399.696
-402.08
-406.428
-412.817
-420.465
-428.029
-435.779
-442.936
-447.812
-450.037
-450.559
-451.159
-452.029
-453.397
-454.489
-454.834
-104.617
-107.105
-111.103
-116.157
-122.21
-130.039
-138.291
-148.406
-159.778
-172.115
-185.704
-200.542
-216.455
-233.378
-250.952
-269.323
-288.361
-307.56
-326.636
-345.246
-363.092
-379.779
-395.034
-408.533
-419.909
-428.864
-435.163
-438.745
-439.612
-438.071
-434.583
-429.614
-424.057
-418.945
-415.37
-414.164
-415.72
-420.293
-426.703
-434.67
-443.078
-449.28
-452.182
-452.391
-451.947
-451.252
-451.51
-452.319
-453.015
-453.438
-101.49
-104.49
-109.827
-115.019
-121.823
-130.025
-138.923
-149.423
-161.488
-175.075
-189.847
-205.921
-223.379
-242.113
-262.068
-282.873
-304.4
-326.421
-348.571
-370.384
-391.418
-411.227
-429.374
-445.411
-458.937
-469.529
-476.796
-480.533
-480.696
-477.302
-470.711
-461.698
-451.21
-440.553
-431.174
-424.578
-421.685
-423.616
-430.099
-439.696
-448.75
-454.618
-456.778
-456.708
-455.187
-453.761
-452.536
-451.69
-451.398
-451.622
-96.5308
-100.396
-105.776
-111.714
-118.911
-127.359
-137.035
-148.107
-160.353
-174.457
-190.413
-207.912
-226.977
-247.387
-269.241
-292.623
-317.018
-342.095
-367.615
-393.077
-417.906
-441.534
-463.356
-482.789
-499.309
-512.479
-521.762
-526.53
-526.523
-521.729
-512.551
-499.363
-483.108
-465.275
-447.966
-433.859
-424.546
-422.384
-428.105
-439.256
-450.572
-457.592
-460.835
-460.46
-458.29
-455.253
-452.289
-449.822
-448.514
-448.143
-89.1776
-94.8982
-99.7865
-106.306
-113.593
-122.241
-132.34
-143.951
-156.791
-171.232
-187.758
-206.062
-226.399
-248.707
-272.832
-298.433
-325.536
-353.919
-383.112
-412.604
-441.785
-469.966
-496.35
-520.187
-540.827
-557.565
-569.641
-576.405
-577.488
-572.58
-561.254
-543.945
-521.53
-495.606
-468.604
-443.295
-423.241
-413.027
-416.741
-430.687
-446.104
-455.673
-459.885
-460.48
-457.915
-453.946
-449.815
-446.132
-443.742
-442.487
-82.1765
-88.7216
-93.324
-99.8325
-106.931
-115.318
-125.225
-136.815
-150.031
-165.162
-182.026
-201.012
-222.291
-245.928
-271.77
-299.792
-329.736
-361.378
-394.393
-428.225
-462.225
-495.587
-527.414
-556.749
-582.621
-604.156
-620.583
-630.93
-634.368
-630.182
-618.065
-597.831
-570.028
-535.494
-496.179
-455.804
-419.993
-398.685
-397.112
-411.201
-431.188
-446.611
-453.969
-456.86
-456.332
-453.363
-448.894
-444.223
-440.828
-438.585
-76.5392
-83.7421
-86.5306
-92.582
-99.0206
-107.135
-116.68
-127.967
-141.106
-156.218
-173.244
-192.711
-214.734
-239.336
-266.602
-296.507
-329.089
-364.002
-400.874
-439.24
-478.435
-517.607
-555.699
-591.551
-623.993
-651.909
-674.06
-689.094
-696.24
-694.846
-683.848
-662.379
-629.971
-587.467
-536.314
-479.334
-424.096
-383.625
-369.911
-381.034
-406.069
-430.857
-450.45
-460.609
-462.958
-460.223
-455.102
-449.322
-444.584
-441.514
-71.3474
-76.6702
-79.0834
-85.0577
-90.7147
-98.3758
-107.067
-117.708
-130.359
-145.033
-162.134
-181.699
-203.845
-228.872
-257.247
-288.816
-323.592
-361.465
-402.11
-445.069
-489.671
-535.005
-580.002
-623.382
-663.72
-699.498
-729.065
-751.063
-764.13
-767.068
-758.787
-738.277
-704.321
-656.812
-595.473
-519.666
-440.017
-382.379
-355.8
-359.342
-385.337
-417.642
-448.632
-465.877
-471.724
-470.621
-464.934
-458.3
-453.398
-451.053
-64.7153
-67.5513
-71.4673
-76.3519
-81.8366
-89.3889
-97.2806
-107.068
-118.761
-132.765
-149.273
-168.323
-190.347
-215.699
-244.577
-277.017
-313.423
-353.732
-397.866
-445.369
-495.462
-547.22
-599.553
-651.219
-700.592
-745.742
-784.605
-815.342
-836.071
-845.696
-842.575
-826.18
-795.226
-744.917
-673.031
-583.114
-490.646
-412.671
-366.542
-359.526
-383.44
-416.178
-448.022
-465.944
-472.441
-471.944
-467.241
-462.053
-458.72
-457.623
-59.2565
-56.9172
-63.9267
-67.2524
-72.7729
-80.126
-87.2448
-96.5076
-107.175
-120.113
-135.538
-153.785
-175.332
-200.285
-229.158
-262.036
-299.323
-341.339
-388.318
-440.075
-495.597
-553.851
-613.864
-674.472
-733.902
-789.77
-839.404
-880.681
-911.889
-931.188
-935.897
-925.02
-899.883
-845.951
-768.151
-675.429
-580.077
-491.425
-436.382
-414.993
-418.265
-436.351
-454.42
-465.191
-468.234
-465.832
-462.46
-459.524
-458.797
-459.513
-79.3867
-50.1547
-57.7322
-58.7631
-64.8419
-71.2653
-77.4048
-86.673
-96.4282
-108.323
-122.726
-139.645
-160.088
-184.513
-212.9
-245.642
-283.359
-326.351
-375.231
-430.412
-490.793
-555.371
-623.16
-693.24
-763.278
-829.645
-890.89
-945.138
-988.585
-1019.88
-1035.93
-1030.2
-1006.32
-961.364
-882.026
-793.27
-699.351
-622.73
-564.631
-524.78
-501.337
-490.511
-485.246
-480.385
-472.441
-464.135
-458.135
-456.217
-457.247
-459.104
61.3214
56.5732
54.1473
52.7054
51.9306
51.5953
51.5725
51.8841
52.5291
53.5506
54.8149
56.417
58.3242
60.682
63.4
66.5274
70.0437
73.9381
78.2304
82.9081
87.9416
93.3205
99.0421
105.057
111.308
117.683
124.167
130.804
137.336
143.585
149.457
154.889
159.66
163.552
166.338
167.691
167.194
164.49
159.243
150.986
139.218
123.383
102.849
76.9425
45.03
6.28428
-39.5399
-92.9098
-157.358
-223.256
57.993
52.9786
51.1318
49.4059
48.3071
47.6986
47.3854
47.3935
47.7272
48.3953
49.3019
50.5129
52.0675
54.007
56.4663
59.1838
62.2764
65.6769
69.414
73.4845
77.8519
82.515
87.453
92.619
97.962
103.386
108.615
113.751
118.844
123.723
128.002
131.567
134.327
136.028
136.43
135.208
131.942
126.246
117.758
106.004
90.4883
70.6024
45.7295
15.2005
-21.6195
-65.5843
-116.859
-175.518
-243.733
-312.081
53.418
48.0762
47.0401
45.0884
43.801
42.9513
42.4211
42.2007
42.3452
42.745
43.4473
44.4528
45.7688
47.2929
49.2439
51.6564
54.317
57.2577
60.4924
63.981
67.7266
71.6912
75.8479
80.1353
84.5047
88.904
93.0257
96.8426
100.413
103.612
106.186
107.898
108.548
107.917
105.748
101.749
95.501
86.6091
74.7161
59.3195
39.8865
15.8752
-13.2861
-48.207
-89.5014
-137.978
-193.796
-256.306
-325.456
-391.971
48.008
42.2801
41.8338
39.6687
38.3812
37.3555
36.6231
36.2079
36.1279
36.3381
36.8185
37.5977
38.7165
40.1134
41.618
43.5332
45.748
48.2404
50.9559
53.879
56.9784
60.2349
63.5707
66.9407
70.2869
73.6118
76.6452
79.1423
81.1798
82.6808
83.3756
83.0583
81.5294
78.5095
73.7173
66.8485
57.5532
45.4459
30.1121
11.0809
-12.1374
-40.0272
-73.0648
-111.78
-156.719
-208.599
-267.511
-332.01
-400.499
-463.006
41.7436
35.7407
35.6486
33.1286
31.9013
30.8165
29.951
29.3497
29.0933
29.0867
29.4109
29.9636
30.7039
31.7266
33.043
34.4897
36.1692
38.1068
40.2605
42.5425
44.9638
47.4408
49.9122
52.3192
54.5652
56.6264
58.404
59.632
60.1763
59.9354
58.7713
56.443
52.7039
47.2989
39.926
30.294
18.0468
2.82334
-15.737
-38.0766
-64.6363
-95.8133
-131.98
-173.551
-220.956
-274.79
-335.022
-399.902
-466.592
-523.576
34.8689
28.5503
28.5308
25.6631
24.3794
23.173
22.1821
21.4353
20.942
20.7397
20.7721
21.0142
21.5125
22.1455
22.9543
23.9767
25.1194
26.4279
27.883
29.4557
31.0822
32.6954
34.2375
35.6233
36.7534
37.5929
38.0211
37.8392
36.8994
35.0264
31.9976
27.6569
21.7826
14.0848
4.28918
-7.91535
-22.8344
-40.7842
-62.123
-87.205
-116.369
-149.937
-188.196
-231.451
-280.007
-334.294
-394.386
-458.437
-522.085
-572.013
27.1345
20.6581
20.3521
17.1606
15.835
14.4837
13.3404
12.4387
11.7396
11.216
10.9112
10.7818
10.7952
11.0395
11.4028
11.8039
12.3334
12.9298
13.6212
14.3663
15.0999
15.7826
16.3138
16.6265
16.5913
16.1337
15.1972
13.6026
11.1478
7.62527
2.87583
-3.30401
-11.1537
-20.9369
-32.9206
-47.3339
-64.4796
-84.6459
-108.085
-135.102
-165.975
-200.929
-240.163
-283.89
-332.354
-385.907
-444.412
-506.116
-565.539
-606.884
18.1583
11.6761
11.213
7.68785
6.28411
4.73698
3.37738
2.24387
1.29404
0.491744
-0.225683
-0.842683
-1.29187
-1.7254
-2.0491
-2.22574
-2.4029
-2.55901
-2.69046
-2.87519
-3.09844
-3.44242
-3.9688
-4.76766
-5.93327
-7.58422
-9.87621
-12.9533
-16.8999
-21.9224
-28.296
-36.1896
-45.7934
-57.343
-71.0645
-87.2197
-106.028
-127.705
-152.492
-180.604
-212.225
-247.517
-286.617
-329.67
-376.902
-428.69
-484.731
-542.933
-596.813
-628.66
7.97645
1.83201
1.15487
-2.5007
-4.06873
-5.91068
-7.51887
-8.95405
-10.2891
-11.5268
-12.7304
-13.8894
-15.0503
-16.0592
-17.0811
-18.1267
-19.0967
-20.0643
-21.1194
-22.2231
-23.4675
-24.8659
-26.4901
-28.4264
-30.7935
-33.6943
-37.2093
-41.5046
-46.8149
-53.3041
-61.0876
-70.3646
-81.3596
-94.2823
-109.329
-126.651
-146.466
-168.968
-194.297
-222.623
-254.086
-288.786
-326.796
-368.212
-413.216
-462.231
-515.081
-568.765
-616.051
-638.53
-3.46716
-9.02262
-9.9195
-13.4305
-15.1236
-17.3291
-19.2894
-21.1292
-22.948
-24.7069
-26.5308
-28.3369
-30.1541
-32.1222
-33.9429
-35.7642
-37.6438
-39.5779
-41.5482
-43.6722
-45.9306
-48.3905
-51.0935
-54.1021
-57.518
-61.4907
-66.1961
-71.7456
-78.205
-85.7692
-94.6833
-105.09
-117.126
-130.951
-146.725
-164.647
-184.851
-207.448
-232.577
-260.35
-290.84
-324.103
-360.173
-399.108
-441.058
-486.326
-534.932
-583.88
-625.341
-641.052
-16.1718
-20.9596
-21.9649
-25.2041
-26.9527
-29.4908
-31.8267
-34.1575
-36.513
-38.9784
-41.4832
-44.0876
-46.6946
-49.2853
-52.134
-54.9783
-57.8783
-60.8099
-63.8287
-66.9434
-70.2311
-73.7291
-77.466
-81.5216
-86.0019
-90.9928
-96.6023
-102.998
-110.375
-118.862
-128.556
-139.608
-152.182
-166.431
-182.488
-200.426
-220.374
-242.448
-266.709
-293.218
-322.026
-353.162
-386.618
-422.363
-460.429
-501.328
-544.536
-587.898
-624.419
-637.945
-29.5609
-33.5155
-34.5171
-37.601
-39.48
-42.2682
-45.1094
-47.9996
-50.9486
-54.118
-57.4209
-60.8016
-64.4807
-68.1723
-71.8062
-75.6552
-79.6058
-83.604
-87.6981
-91.8776
-96.1867
-100.645
-105.333
-110.28
-115.575
-121.361
-127.792
-134.968
-142.941
-151.854
-161.915
-173.255
-185.981
-200.173
-215.919
-233.353
-252.545
-273.523
-296.338
-321.029
-347.589
-375.985
-406.184
-438.139
-471.827
-507.464
-543.831
-578.925
-606.764
-620.206
-43.0648
-46.3377
-47.2888
-50.3875
-52.4513
-55.5438
-58.6936
-62.2351
-66.1083
-69.9696
-74.1683
-78.526
-82.864
-87.6357
-92.5709
-97.5025
-102.528
-107.677
-112.864
-118.125
-123.422
-128.847
-134.43
-140.215
-146.295
-152.729
-159.61
-167.065
-175.279
-184.393
-194.478
-205.63
-217.976
-231.637
-246.702
-263.177
-281.104
-300.538
-321.478
-343.892
-367.741
-392.968
-419.445
-446.983
-476.002
-505.519
-533.75
-557.17
-570.94
-581.85
-56.3453
-59.0346
-59.9671
-63.121
-65.5561
-69.1356
-72.7454
-76.6912
-81.2079
-86.2008
-91.2796
-96.7751
-102.483
-108.124
-114.101
-120.229
-126.454
-132.755
-139.132
-145.439
-151.773
-158.119
-164.482
-170.922
-177.496
-184.31
-191.49
-199.148
-207.322
-216.133
-225.761
-236.359
-248.015
-260.774
-274.664
-289.77
-306.124
-323.674
-342.385
-362.234
-383.135
-404.914
-427.32
-450.383
-473.818
-496.54
-516.816
-531.212
-536.097
-541.039
-69.0084
-71.0692
-72.1962
-75.4761
-78.2511
-82.3325
-86.5838
-91.4683
-96.5581
-102.272
-108.547
-114.923
-121.751
-128.923
-136.135
-143.492
-150.929
-158.529
-166.023
-173.496
-180.879
-188.125
-195.281
-202.363
-209.411
-216.479
-223.634
-230.967
-238.661
-246.916
-255.835
-265.484
-275.971
-287.419
-299.913
-313.416
-327.886
-343.322
-359.678
-376.842
-394.675
-413.017
-431.688
-450.449
-468.554
-485.02
-498.254
-506.705
-512.991
-514.91
-80.8897
-82.0142
-83.4376
-86.9539
-90.1869
-94.7308
-99.5413
-105.172
-111.441
-118.074
-125.291
-133.136
-141.228
-149.57
-158.174
-166.972
-175.772
-184.624
-193.429
-202.139
-210.597
-218.8
-226.731
-234.334
-241.634
-248.692
-255.644
-262.621
-269.707
-276.991
-284.668
-292.975
-302.056
-311.967
-322.71
-334.337
-346.86
-360.168
-374.131
-388.669
-403.69
-418.975
-434.301
-449.206
-462.975
-474.836
-483.518
-487.902
-492.613
-494.411
-91.1504
-92.0323
-93.4619
-97.1877
-100.673
-105.949
-111.557
-117.879
-125.163
-133.074
-141.3
-150.089
-159.615
-169.585
-179.77
-190.044
-200.434
-210.717
-220.934
-230.939
-240.646
-249.944
-258.716
-266.917
-274.558
-281.666
-288.299
-294.504
-300.44
-306.428
-312.68
-319.332
-326.559
-334.531
-343.396
-353.134
-363.634
-374.813
-386.606
-398.892
-411.468
-424.015
-436.39
-448.295
-458.888
-466.881
-471.432
-476
-477.636
-479.545
-98.7207
-99.6792
-101.394
-105.568
-109.403
-115.319
-121.704
-129.045
-137.147
-146.142
-155.993
-166.317
-177.031
-188.301
-200.125
-212.243
-224.374
-236.418
-248.298
-259.859
-270.973
-281.48
-291.239
-300.149
-308.115
-315.104
-321.243
-326.708
-331.642
-336.135
-340.441
-344.938
-349.976
-355.801
-362.487
-370.081
-378.607
-387.943
-397.891
-408.307
-418.818
-429.057
-439.055
-448.407
-456.252
-461.569
-464.316
-466.509
-468.145
-469.315
-103.226
-104.318
-106.833
-111.43
-115.919
-122.663
-129.761
-138.027
-147.207
-157.21
-168.123
-180.008
-192.536
-205.603
-219.128
-233.025
-247.117
-261.169
-275.003
-288.407
-301.197
-313.201
-324.238
-334.129
-342.718
-349.948
-355.823
-360.391
-363.784
-366.364
-368.513
-370.603
-373.02
-376.105
-380.243
-385.63
-392.19
-399.774
-408.311
-417.343
-426.115
-434.573
-442.5
-449.277
-454.271
-457.308
-460.149
-460.95
-462.226
-462.821
-105.102
-106.81
-109.983
-114.734
-120.148
-127.407
-135.05
-144.559
-154.794
-166.069
-178.338
-191.488
-205.549
-220.381
-235.922
-251.991
-268.25
-284.57
-300.638
-316.243
-331.157
-345.076
-357.763
-368.98
-378.476
-386.068
-391.7
-395.537
-397.751
-398.52
-398.174
-397.21
-396.293
-396.17
-397.287
-399.893
-404.195
-410.288
-417.761
-425.615
-433.421
-440.817
-446.717
-450.628
-452.673
-454.616
-455.884
-457.059
-458.165
-458.577
-104.407
-106.907
-110.899
-115.967
-122.062
-129.853
-138.078
-148.171
-159.5
-171.781
-185.313
-200.056
-215.849
-232.651
-250.047
-268.196
-286.995
-305.912
-324.663
-342.925
-360.395
-376.697
-391.538
-404.604
-415.577
-424.199
-430.27
-433.732
-434.628
-433.183
-429.992
-425.697
-421.045
-416.773
-413.783
-412.914
-414.565
-418.872
-425.155
-432.769
-440.931
-447.586
-451.374
-452.372
-452.716
-452.962
-453.703
-454.75
-455.741
-456.192
-101.281
-104.255
-109.595
-114.782
-121.591
-129.78
-138.65
-149.106
-161.168
-174.704
-189.398
-205.381
-222.709
-241.293
-261.072
-281.659
-302.92
-324.625
-346.428
-367.847
-388.457
-407.826
-425.505
-441.05
-454.158
-464.323
-471.21
-474.685
-474.811
-471.786
-465.937
-457.778
-448.209
-438.678
-430.602
-424.937
-422.451
-423.917
-429.62
-438.506
-447.428
-453.65
-456.203
-455.889
-454.598
-453.852
-453.646
-453.888
-454.35
-454.816
-96.2061
-100.101
-105.529
-111.437
-118.625
-127.051
-136.72
-147.769
-159.937
-174.013
-189.892
-207.299
-226.253
-246.5
-268.179
-291.308
-315.407
-340.151
-365.278
-390.286
-414.613
-437.717
-459.007
-477.889
-493.869
-506.535
-515.418
-519.978
-519.997
-515.456
-506.712
-494.427
-479.752
-463.926
-448.597
-435.959
-427.361
-425.045
-429.895
-439.781
-450.65
-457.795
-460.568
-460.529
-458.699
-456.563
-454.549
-453.118
-452.416
-452.449
-88.8182
-94.5387
-99.4766
-105.973
-113.267
-121.902
-131.971
-143.544
-156.332
-170.787
-187.197
-205.401
-225.6
-247.758
-271.671
-297.019
-323.809
-351.816
-380.57
-409.558
-438.156
-465.695
-491.444
-514.645
-534.607
-550.803
-562.424
-568.84
-569.699
-564.871
-554.195
-538.227
-517.686
-494.103
-469.976
-447.786
-429.899
-420.057
-421.567
-433.473
-448.179
-458.09
-462.402
-462.412
-460.385
-457.114
-453.531
-450.588
-448.872
-448.275
-81.7828
-88.3183
-92.9462
-99.433
-106.553
-114.932
-124.819
-136.389
-149.577
-164.642
-181.379
-200.314
-221.469
-244.911
-270.542
-298.29
-327.888
-359.118
-391.644
-424.914
-458.261
-490.9
-521.952
-550.513
-575.612
-596.394
-612.139
-622.017
-625.227
-621.202
-609.468
-590.128
-564.127
-532.888
-498.139
-462.446
-430.045
-409.253
-405.832
-416.887
-436.171
-451.403
-458.205
-459.924
-458.326
-454.971
-450.851
-446.972
-444.382
-442.845
-76.0938
-83.2704
-86.1223
-92.1494
-98.6089
-106.7
-116.249
-127.519
-140.59
-155.634
-172.614
-191.974
-213.829
-238.252
-265.306
-294.938
-327.152
-361.607
-397.924
-435.651
-474.098
-512.42
-549.585
-584.477
-615.947
-642.852
-664.171
-678.712
-685.508
-683.774
-672.873
-652.353
-622.123
-582.978
-536.392
-485.508
-435.768
-398.626
-383.111
-390.242
-412.2
-435.026
-449.434
-457.315
-459.182
-456.882
-452.594
-447.873
-444.45
-442.179
-70.8938
-76.2065
-78.6816
-84.623
-90.3014
-97.9071
-106.61
-117.205
-129.834
-144.485
-161.512
-180.93
-202.901
-227.781
-255.915
-287.195
-321.584
-358.961
-398.98
-441.216
-484.976
-529.344
-573.233
-615.416
-654.5
-689.004
-717.421
-738.496
-750.99
-753.714
-745.522
-725.509
-692.866
-647.781
-591.495
-524.964
-453.594
-394.997
-366.062
-366.508
-389.285
-422.337
-446.767
-462.282
-467.227
-465.373
-460.406
-454.668
-450.177
-447.404
-64.2835
-67.1311
-71.0785
-75.9278
-81.4308
-88.9353
-96.8207
-106.554
-118.243
-132.189
-148.612
-167.54
-189.418
-214.597
-243.199
-275.369
-311.354
-351.127
-394.588
-441.279
-490.443
-541.124
-592.208
-642.436
-690.238
-733.781
-771.093
-800.501
-820.289
-829.426
-826.285
-809.399
-778.222
-730.896
-666.163
-583.292
-495.737
-421.016
-373.738
-355.178
-376.118
-413.169
-445.004
-466.364
-473.628
-472.705
-467.331
-461.682
-457.679
-455.943
-58.8172
-56.4878
-63.5516
-66.8402
-72.3451
-79.6838
-86.802
-96.0148
-106.642
-119.493
-134.863
-153.029
-174.434
-199.168
-227.75
-260.334
-297.191
-338.678
-384.927
-435.776
-490.268
-547.329
-605.934
-664.882
-722.444
-776.249
-823.966
-863.601
-893.062
-911.241
-915.899
-904.844
-877.665
-830.135
-756.987
-664.095
-568.333
-485.82
-422.099
-396.484
-400.109
-421.911
-445.689
-462.388
-469.336
-469.043
-465.889
-462.364
-460.282
-459.999
-78.879
-49.7114
-57.3547
-58.3437
-64.3969
-70.8175
-76.9622
-86.1865
-95.9085
-107.743
-122.065
-138.892
-159.185
-183.389
-211.463
-243.833
-281.144
-323.637
-371.726
-425.936
-485.199
-548.439
-614.661
-682.718
-750.671
-814.897
-873.592
-925.711
-966.925
-996.03
-1011.45
-1007.97
-983.772
-939.741
-863.567
-772.423
-678.987
-593.803
-531.374
-489.115
-469.328
-465.022
-469.736
-471.905
-470.238
-466.019
-461.74
-459.464
-459.523
-460.719
-66.3308
-38.4114
-47.0338
-50.1614
-57.0442
-63.5337
-69.8382
-77.6253
-86.7035
-98.0542
-111.528
-127.556
-146.882
-169.689
-196.81
-229.546
-267.955
-311.835
-362.01
-419.399
-484.257
-555.806
-632.148
-711.457
-791.344
-869.118
-941.356
-1005.43
-1060.17
-1102.52
-1133.05
-1141.88
-1117.66
-1056.19
-978.149
-888.489
-799.656
-722.45
-657.831
-605.26
-566.88
-538.723
-516.836
-497.547
-480.643
-466.698
-458.676
-457.544
-459.256
-461.014
-49.8686
-44.5245
-47.802
-50.163
-53.9844
-59.2406
-65.6943
-73.1886
-82.2504
-93.2347
-106.549
-123.203
-143.404
-168.044
-197.71
-233.456
-275.38
-323.95
-380.535
-445.91
-520.131
-601.851
-689.372
-781.679
-875.577
-966.865
-1051.04
-1125.4
-1187.28
-1233.73
-1256.84
-1247.62
-1206.12
-1144.08
-1066.8
-982.455
-897.235
-821.112
-756.012
-700.079
-651.109
-608.282
-569.78
-535.038
-503.949
-479.216
-464.435
-459.629
-461.912
-464.171
-39.1162
-42.9295
-46.8375
-49.4368
-52.3163
-56.8013
-63.4261
-71.3293
-80.7337
-92.1394
-106.206
-124.645
-147.97
-176.811
-210.787
-250.792
-298.98
-356.527
-423.638
-500.025
-585.605
-680.343
-782.949
-890.669
-998.461
-1099.39
-1190.91
-1271.14
-1334.87
-1370.51
-1371.93
-1347.51
-1300.21
-1236.6
-1160.68
-1080.57
-1001.45
-925.37
-853.705
-787.774
-727.3
-671.872
-621.343
-575.709
-535.505
-502.245
-478.791
-467.233
-467.57
-470.973
-33.8558
-37.7067
-41.7114
-45.4637
-48.7582
-53.6677
-60.2949
-68.5612
-78.5992
-90.9725
-106.918
-127.521
-153.73
-185.847
-224.861
-271.918
-328.859
-396.125
-474.076
-563.984
-666.878
-781.059
-902.553
-1025.08
-1143.21
-1253.26
-1352.79
-1435.57
-1488.49
-1505.82
-1494.87
-1459.89
-1406.57
-1338.32
-1262.42
-1181.03
-1098.28
-1016.21
-937.163
-861.997
-791.69
-726.597
-667.223
-614.19
-568.107
-529.705
-500.232
-481.839
-475.546
-482.321
-28.5361
-31.7749
-35.1398
-39.168
-42.9578
-47.9619
-54.4537
-63.015
-73.6813
-87.0697
-104.747
-127.378
-156.206
-192.168
-237.193
-291.952
-356.962
-434.566
-527.431
-637.267
-762.681
-898.391
-1037.38
-1173.59
-1304.2
-1426.55
-1529.89
-1600.9
-1636.19
-1641.03
-1618.42
-1573.98
-1512.58
-1438.94
-1356.97
-1269.5
-1179.73
-1090.59
-1003.47
-920.221
-841.794
-769.267
-703.584
-645.511
-595.782
-554.69
-522.393
-499.839
-490.247
-498.324
-22.4953
-25.2152
-27.9905
-31.2218
-34.5072
-38.9268
-45.2662
-54.1777
-65.2308
-79.4926
-97.9633
-122.09
-153.807
-194.521
-245.426
-307.024
-381.621
-473.68
-587.133
-721.388
-870.566
-1027.31
-1184.43
-1337.67
-1483.02
-1609.16
-1699.21
-1752.51
-1772.89
-1763.83
-1729.12
-1674.32
-1604.31
-1522.16
-1431.79
-1336.9
-1239.89
-1143.35
-1049.24
-959.066
-874.392
-796.441
-726.374
-665.162
-613.397
-571.279
-538.662
-516.064
-506.068
-507.629
-15.6977
-17.3495
-18.8287
-20.9575
-23.9421
-27.808
-33.3862
-41.517
-52.0235
-65.9762
-85.0654
-110.696
-145.589
-190.441
-246.57
-317.271
-406.268
-517.846
-655.177
-814.895
-988.446
-1167.16
-1345.8
-1516.52
-1664.22
-1772.22
-1844.88
-1882.66
-1887.82
-1864.39
-1818.3
-1752.28
-1671.79
-1580.38
-1481.79
-1379.32
-1275.48
-1172.48
-1072.19
-976.553
-886.994
-805.079
-732.118
-669.003
-616.41
-574.484