/*--------------------------------*- C++ -*----------------------------------*\
| =========                 |                                                 |
| \\      /  F ield         | OpenFOAM: The Open Source CFD Toolbox           |
|  \\    /   O peration     | Version:  v1912                                 |
|   \\  /    A nd           | Website:  www.openfoam.com                      |
|    \\/     M anipulation  |                                                 |
\*---------------------------------------------------------------------------*/
FoamFile
{
    version     2.0;
    format      ascii;
    class       surfaceScalarField;
    location    "0.12";
    object      phi;
}
// * * * * * * * * * * * * * * * * * * * * * * * * * * * * * * * * * * * * * //

dimensions      [0 3 -1 0 0 0 0];
oriented        oriented;


internalField   nonuniform List<scalar> 
13060
(
0.00564149
0.988546
-0.994187
0.00717127
0.946141
-0.947671
0.00814707
0.900646
-0.901621
0.00882649
0.857331
-0.858011
0.00928958
0.816921
-0.817384
0.00961395
0.779081
-0.779405
0.00988498
0.742662
-0.742933
0.0101294
0.707926
-0.708171
0.0102531
0.67483
-0.674953
0.0104763
0.642941
-0.643164
0.0105504
0.612628
-0.612702
0.010567
0.583587
-0.583603
0.0102904
0.556016
-0.55574
0.0100741
0.529459
-0.529243
0.0099881
0.504096
-0.50401
0.00982435
0.479789
-0.479625
0.0097037
0.456393
-0.456272
0.00963625
0.434075
-0.434008
0.00956
0.412742
-0.412666
0.00949899
0.392344
-0.392283
0.00940767
0.372931
-0.372839
0.00929028
0.354352
-0.354235
0.0091491
0.336628
-0.336487
0.00899418
0.319735
-0.31958
0.00884204
0.303616
-0.303464
0.00880454
0.288127
-0.28809
0.00872355
0.273462
-0.273382
0.0085381
0.259691
-0.259505
0.00822569
0.246565
-0.246252
0.00787711
0.234027
-0.233678
0.00745876
0.222185
-0.221767
0.0069675
0.211005
-0.210513
0.00644848
0.200397
-0.199878
0.00590205
0.190339
-0.189792
0.00531191
0.180858
-0.180268
0.0046619
0.171959
-0.171309
0.00398395
0.163601
-0.162923
0.00332212
0.15574
-0.155078
0.00263634
0.148381
-0.147695
0.00192665
0.141478
-0.140768
0.00121692
0.134986
-0.134276
0.000521868
0.128921
-0.128226
-0.000150797
0.123225
-0.122552
-0.000845892
0.117949
-0.117254
-0.00148682
0.112964
-0.112323
-0.00202671
0.108405
-0.107865
-0.00264713
0.103758
-0.103137
-0.00293775
0.100064
-0.099773
-0.00227283
0.0913487
-0.0920136
0.061982
-0.0642548
0.00575792
0.982788
0.00667891
0.94522
0.0069503
0.900374
0.00673279
0.857549
0.00644931
0.817205
0.00625021
0.77928
0.00599918
0.742913
0.00559295
0.708332
0.00530476
0.675118
0.00501903
0.643226
0.0048067
0.61284
0.00471391
0.58368
0.00493176
0.555799
0.00512163
0.529269
0.00524057
0.503977
0.00535798
0.479671
0.00539031
0.456361
0.00535
0.434115
0.00525045
0.412841
0.00510159
0.392493
0.00493715
0.373095
0.00476117
0.354528
0.00456187
0.336828
0.00432313
0.319974
0.00402101
0.303918
0.00353126
0.288617
0.00295098
0.274043
0.00250897
0.260133
0.00219435
0.246879
0.0018123
0.234409
0.00140112
0.222596
0.00105044
0.211355
0.000668043
0.20078
0.000236312
0.19077
-0.000217692
0.181312
-0.000683032
0.172424
-0.00114694
0.164065
-0.00164391
0.156237
-0.00214096
0.148878
-0.0026273
0.141964
-0.00309292
0.135452
-0.00351207
0.12934
-0.00388767
0.1236
-0.00418751
0.118249
-0.00442967
0.113206
-0.00457042
0.108546
-0.00466838
0.103856
-0.00418948
0.0995847
-0.00290991
0.0900691
0.0590721
0.00508483
0.977703
0.00575135
0.944554
0.00550415
0.900621
0.00463152
0.858421
0.00416011
0.817676
0.00369631
0.779744
0.00326703
0.743342
0.00283187
0.708768
0.00246926
0.67548
0.00205106
0.643645
0.00160468
0.613286
0.00105976
0.584225
0.000312905
0.556545
-0.000300196
0.529882
-0.000676031
0.504353
-0.00110783
0.480103
-0.00149853
0.456751
-0.0017983
0.434415
-0.00208447
0.413127
-0.00234882
0.392758
-0.00260725
0.373353
-0.00286595
0.354787
-0.00311657
0.337078
-0.00335779
0.320215
-0.00354298
0.304103
-0.00353389
0.288608
-0.00349561
0.274005
-0.00369928
0.260337
-0.00402204
0.247202
-0.00427073
0.234658
-0.0045508
0.222876
-0.00490605
0.21171
-0.00522578
0.201099
-0.00552615
0.191071
-0.00583567
0.181621
-0.00616227
0.172751
-0.00648134
0.164384
-0.00674912
0.156505
-0.00699736
0.149126
-0.00721468
0.142181
-0.00738416
0.135621
-0.00750114
0.129457
-0.00754288
0.123642
-0.0074738
0.11818
-0.0072937
0.113026
-0.00699712
0.108249
-0.00664563
0.103504
-0.00560922
0.0985483
-0.00362656
0.0880865
0.0554455
0.00451319
0.97319
0.00415916
0.944908
0.00341343
0.901367
0.00230436
0.85953
0.00103401
0.818947
-8.72771e-05
0.780865
-0.00104597
0.744301
-0.00199228
0.709714
-0.00275267
0.676241
-0.00352706
0.644419
-0.0040186
0.613778
-0.00441034
0.584616
-0.00467701
0.556812
-0.00489366
0.530099
-0.00527117
0.504731
-0.00545821
0.48029
-0.00570473
0.456998
-0.00598481
0.434695
-0.00629787
0.413441
-0.00663643
0.393096
-0.00696419
0.373681
-0.00728066
0.355103
-0.00759624
0.337394
-0.00792635
0.320545
-0.00833704
0.304514
-0.00891668
0.289188
-0.00952035
0.274608
-0.00985072
0.260667
-0.0100729
0.247424
-0.0103622
0.234947
-0.0106352
0.223149
-0.0108468
0.211922
-0.0110678
0.20132
-0.0112881
0.191291
-0.0114757
0.181809
-0.0115846
0.17286
-0.0116611
0.16446
-0.0117361
0.15658
-0.0117571
0.149147
-0.0117101
0.142135
-0.0115888
0.1355
-0.0113706
0.129239
-0.0110552
0.123327
-0.0106325
0.117757
-0.0100881
0.112482
-0.00935503
0.107516
-0.00850632
0.102656
-0.00701703
0.097059
-0.00436853
0.085438
0.051077
0.00354503
0.969645
0.00227503
0.946178
0.000712665
0.902929
-0.000327259
0.86057
-0.00159884
0.820218
-0.00274282
0.782009
-0.00382204
0.74538
-0.00472809
0.71062
-0.00566556
0.677178
-0.00665026
0.645404
-0.00768492
0.614813
-0.00870243
0.585634
-0.00956868
0.557678
-0.0105047
0.531035
-0.0112979
0.505524
-0.0121192
0.481111
-0.0128107
0.457689
-0.0133904
0.435275
-0.0138883
0.413938
-0.0143375
0.393545
-0.0147481
0.374092
-0.01514
0.355495
-0.0154925
0.337746
-0.0157892
0.320842
-0.0159324
0.304657
-0.0158684
0.289124
-0.0158027
0.274542
-0.0160213
0.260886
-0.0163219
0.247725
-0.0164728
0.235098
-0.0165828
0.223259
-0.0167344
0.212074
-0.0168357
0.201421
-0.0168743
0.19133
-0.0168758
0.18181
-0.0168656
0.17285
-0.0167908
0.164386
-0.0166196
0.156409
-0.0163802
0.148908
-0.0160568
0.141811
-0.0156379
0.135081
-0.0151218
0.128723
-0.0144877
0.122693
-0.0137255
0.116995
-0.0128281
0.111584
-0.0117486
0.106437
-0.0105475
0.101455
-0.0086122
0.0951236
-0.00516485
0.0819906
0.0459122
0.00223767
0.967407
0.000526368
0.947889
-0.00172712
0.905183
-0.00334309
0.862186
-0.00525417
0.822129
-0.00696474
0.783719
-0.00855789
0.746973
-0.00994352
0.712006
-0.0111152
0.67835
-0.0122996
0.646588
-0.0131151
0.615628
-0.0138397
0.586358
-0.0146596
0.558498
-0.0153339
0.531709
-0.0158707
0.506061
-0.0163073
0.481548
-0.0168358
0.458218
-0.017374
0.435813
-0.0179194
0.414484
-0.0184532
0.394079
-0.0189362
0.374575
-0.0193857
0.355945
-0.0198096
0.33817
-0.0202333
0.321265
-0.0207736
0.305197
-0.0214739
0.289824
-0.0220443
0.275113
-0.0222326
0.261074
-0.0222924
0.247785
-0.0224571
0.235263
-0.0225773
0.223379
-0.0225672
0.212064
-0.0225197
0.201374
-0.0224409
0.191251
-0.022293
0.181663
-0.0220321
0.172589
-0.0216959
0.164049
-0.0213098
0.156023
-0.0208288
0.148426
-0.0202443
0.141227
-0.0195521
0.134389
-0.0187342
0.127905
-0.0177974
0.121756
-0.0167313
0.115929
-0.0155566
0.110409
-0.0143055
0.105186
-0.0126521
0.0998012
-0.0101811
0.0926527
-0.00594531
0.0777548
0.0399669
0.00146195
0.965945
-0.000891564
0.950242
-0.00365106
0.907942
-0.00585054
0.864386
-0.00773437
0.824013
-0.00940767
0.785393
-0.0111371
0.748702
-0.0126948
0.713563
-0.0143209
0.679976
-0.0156481
0.647915
-0.0171011
0.617081
-0.018574
0.587831
-0.0196858
0.55961
-0.0208943
0.532918
-0.0221035
0.50727
-0.0232633
0.482708
-0.0242673
0.459222
-0.0251588
0.436705
-0.0259
0.415225
-0.0265482
0.394727
-0.0271184
0.375145
-0.0276273
0.356453
-0.0280519
0.338595
-0.0283555
0.321569
-0.0284062
0.305248
-0.0282272
0.289645
-0.0281194
0.275005
-0.0282982
0.261253
-0.0284883
0.247975
-0.0284632
0.235238
-0.0283676
0.223284
-0.0282692
0.211965
-0.0280765
0.201181
-0.0277795
0.190954
-0.027406
0.181289
-0.0269966
0.172179
-0.0264977
0.16355
-0.0258681
0.155393
-0.0251352
0.147694
-0.0242903
0.140382
-0.0233303
0.133429
-0.0222642
0.126838
-0.0210764
0.120568
-0.0197643
0.114617
-0.0183164
0.108962
-0.0168562
0.103725
-0.014798
0.0977431
-0.0118209
0.0896755
-0.00671551
0.0726494
0.0332514
0.000715745
0.96523
-0.0026538
0.953612
-0.00571293
0.911002
-0.00859377
0.867267
-0.0112625
0.826682
-0.013599
0.787729
-0.0157489
0.750852
-0.0176771
0.715491
-0.0193937
0.681693
-0.0209661
0.649488
-0.0222816
0.618396
-0.0234101
0.58896
-0.0246207
0.560821
-0.0255713
0.533868
-0.026364
0.508063
-0.027102
0.483446
-0.0278949
0.460015
-0.0286712
0.437481
-0.0294489
0.416003
-0.0301869
0.395465
-0.030837
0.375795
-0.0314117
0.357028
-0.0319352
0.339118
-0.0324456
0.322079
-0.0330729
0.305875
-0.033823
0.290395
-0.0343368
0.275519
-0.0343756
0.261291
-0.0342348
0.247834
-0.0341893
0.235192
-0.0340855
0.22318
-0.0338167
0.211696
-0.0334551
0.20082
-0.033026
0.190525
-0.0325041
0.180767
-0.0318346
0.17151
-0.0310626
0.162778
-0.0302195
0.15455
-0.0292646
0.146739
-0.0281958
0.139313
-0.027017
0.13225
-0.0257151
0.125537
-0.0243156
0.119169
-0.0228293
0.113131
-0.0212667
0.107399
-0.0194523
0.101911
-0.0170577
0.0953485
-0.0134741
0.0860919
-0.00742576
0.066601
0.0258256
-8.38574e-05
0.965313
-0.00435891
0.957887
-0.00782223
0.914465
-0.010782
0.870226
-0.0135854
0.829485
-0.0160826
0.790226
-0.0182412
0.753011
-0.0201743
0.717425
-0.0222656
0.683784
-0.0239493
0.651171
-0.0258998
0.620347
-0.0276991
0.590759
-0.0292815
0.562403
-0.0309676
0.535554
-0.0326328
0.509728
-0.0341365
0.48495
-0.0354853
0.461363
-0.0366418
0.438637
-0.037597
0.416958
-0.038436
0.396304
-0.039178
0.376537
-0.0398154
0.357666
-0.0403191
0.339622
-0.0406355
0.322396
-0.0406217
0.305861
-0.0403189
0.290092
-0.0400915
0.275292
-0.0401475
0.261347
-0.0401913
0.247878
-0.0399469
0.234948
-0.0395677
0.222801
-0.0391659
0.211295
-0.0386597
0.200314
-0.0380151
0.18988
-0.0372554
0.180007
-0.036444
0.170698
-0.0355353
0.16187
-0.034487
0.153502
-0.0333255
0.145577
-0.0320495
0.138037
-0.0306645
0.130865
-0.0291935
0.124066
-0.0276107
0.117586
-0.0259214
0.111442
-0.0242928
0.10577
-0.022137
0.0997553
-0.0193755
0.0925869
-0.0149811
0.0816975
-0.00807136
0.0596913
0.0177542
-0.000718074
0.966032
-0.00564315
0.962812
-0.00946666
0.918288
-0.0130416
0.873801
-0.0165228
0.832966
-0.0195833
0.793287
-0.0221195
0.755547
-0.0244731
0.719778
-0.0265302
0.685841
-0.0286889
0.65333
-0.0305102
0.622168
-0.0321416
0.592391
-0.0337656
0.564027
-0.0350324
0.536821
-0.0360952
0.510791
-0.0371877
0.486042
-0.0382378
0.462414
-0.0392946
0.439694
-0.0403337
0.417997
-0.0412837
0.397254
-0.0421177
0.377371
-0.0428358
0.358384
-0.0434644
0.340251
-0.0440566
0.322988
-0.0447476
0.306552
-0.0455226
0.290867
-0.0459879
0.275757
-0.0458922
0.261252
-0.0455305
0.247516
-0.0452473
0.234664
-0.0449008
0.222454
-0.0443469
0.210741
-0.043658
0.199625
-0.0428889
0.189111
-0.0420258
0.179144
-0.0409957
0.169668
-0.0398445
0.160719
-0.0386168
0.152274
-0.0372807
0.144241
-0.0358406
0.136597
-0.0343092
0.129334
-0.0326732
0.122429
-0.0309864
0.115899
-0.0292908
0.109746
-0.027385
0.103865
-0.0248673
0.0972376
-0.0214739
0.0891935
-0.0159085
0.0761322
-0.00731322
0.0510961
0.010441
-0.00130012
0.967332
-0.0061776
0.96769
-0.0104546
0.922565
-0.0145016
0.877848
-0.0176245
0.836089
-0.0206391
0.796302
-0.0236861
0.758594
-0.0264099
0.722502
-0.0288263
0.688258
-0.0310113
0.655515
-0.0332368
0.624394
-0.0354079
0.594562
-0.0374796
0.566099
-0.0396724
0.539014
-0.0418437
0.512962
-0.0437807
0.487979
-0.0455159
0.464149
-0.0469736
0.441152
-0.0482093
0.419233
-0.0492974
0.398343
-0.0502535
0.378327
-0.0510592
0.359189
-0.0516886
0.34088
-0.0520645
0.323364
-0.0520443
0.306532
-0.0516439
0.290467
-0.0512528
0.275366
-0.0511547
0.261154
-0.0510789
0.24744
-0.0506601
0.234246
-0.0500144
0.221809
-0.0493195
0.210046
-0.0485253
0.19883
-0.0475768
0.188162
-0.046486
0.178053
-0.0453432
0.168526
-0.044117
0.159492
-0.0427557
0.150913
-0.0412855
0.142771
-0.0397122
0.135024
-0.0380385
0.12766
-0.0363034
0.120694
-0.0344876
0.114083
-0.0327073
0.107966
-0.0304446
0.101602
-0.0276517
0.0944447
-0.0233237
0.0848655
-0.0159422
0.0687506
-0.0053121
0.040466
0.00512892
-0.001582
0.968914
-0.00657196
0.97268
-0.0112999
0.927293
-0.0159401
0.882488
-0.0197018
0.839851
-0.0231545
0.799754
-0.0263121
0.761752
-0.0292225
0.725412
-0.0318619
0.690897
-0.0344065
0.65806
-0.0368347
0.626822
-0.0390183
0.596745
-0.0409902
0.568071
-0.0425909
0.540615
-0.0440765
0.514448
-0.0455876
0.48949
-0.0469685
0.46553
-0.0484322
0.442616
-0.0498252
0.420626
-0.0510774
0.399595
-0.0521675
0.379417
-0.0530967
0.360119
-0.0538863
0.34167
-0.0545881
0.324066
-0.0553321
0.307276
-0.0561447
0.29128
-0.0566467
0.275868
-0.0564935
0.261
-0.0559455
0.246892
-0.0554532
0.233753
-0.0549356
0.221291
-0.0541751
0.209285
-0.0532239
0.197879
-0.0521791
0.187118
-0.0510612
0.176935
-0.049777
0.167241
-0.0483591
0.158074
-0.0468686
0.149422
-0.0452822
0.141184
-0.0436051
0.133346
-0.0418596
0.125914
-0.0400135
0.118848
-0.0382807
0.11235
-0.0362657
0.105951
-0.0336464
0.0989824
-0.0300472
0.0908455
-0.024409
0.0792273
-0.01541
0.0597515
-0.00330995
0.028366
0.00181897
-0.00165876
0.970572
-0.00689944
0.97792
-0.0117054
0.932099
-0.0160204
0.886803
-0.0198096
0.84364
-0.0231971
0.803142
-0.0265362
0.765091
-0.0296686
0.728545
-0.0326922
0.69392
-0.0355023
0.66087
-0.0379084
0.629228
-0.0405798
0.599417
-0.0432825
0.570773
-0.0461344
0.543466
-0.0488347
0.517148
-0.0511991
0.491854
-0.0534081
0.467739
-0.0553201
0.444528
-0.0569795
0.422285
-0.0584506
0.401066
-0.0597487
0.380715
-0.0608386
0.361208
-0.0616965
0.342528
-0.0622531
0.324622
-0.0623759
0.307399
-0.062006
0.29091
-0.061509
0.275371
-0.061275
0.260766
-0.0611403
0.246757
-0.0606352
0.233248
-0.0597905
0.220446
-0.0588716
0.208366
-0.0578843
0.196892
-0.0567442
0.185978
-0.0554285
0.17562
-0.05406
0.165873
-0.0526343
0.156649
-0.0510861
0.147874
-0.0494412
0.139539
-0.0477157
0.131621
-0.0458908
0.12409
-0.0441269
0.117084
-0.0422782
0.110502
-0.0398494
0.103522
-0.036784
0.095917
-0.0323382
0.0863997
-0.0250814
0.0719705
-0.0140381
0.0487082
-0.00205964
0.0163875
-0.000240669
-0.00229255
0.972865
-0.00781273
0.98344
-0.0122182
0.936505
-0.0164527
0.891038
-0.0205277
0.847715
-0.0242295
0.806843
-0.0272862
0.768148
-0.0307147
0.731973
-0.033919
0.697125
-0.0370104
0.663961
-0.0401526
0.63237
-0.0427682
0.602032
-0.0451771
0.573182
-0.0472052
0.545495
-0.049301
0.519244
-0.0514246
0.493978
-0.0533548
0.469669
-0.0553441
0.446517
-0.0572534
0.424194
-0.0589824
0.402795
-0.060505
0.382238
-0.0618047
0.362508
-0.0629001
0.343623
-0.06383
0.325552
-0.0647031
0.308272
-0.0656297
0.291836
-0.0663153
0.276056
-0.0662905
0.260742
-0.0656761
0.246143
-0.0650412
0.232614
-0.0644413
0.219846
-0.0635886
0.207513
-0.0624815
0.195785
-0.0612595
0.184756
-0.0600007
0.174361
-0.0585928
0.164465
-0.0570369
0.155093
-0.0554086
0.146246
-0.0536985
0.137829
-0.0519048
0.129827
-0.0501573
0.122342
-0.04846
0.115387
-0.046294
0.108336
-0.0437188
0.100947
-0.0401922
0.0923904
-0.0344908
0.0806984
-0.0249192
0.0623989
-0.0106013
0.0343903
-0.00127026
0.00705647
-0.00151093
-0.00175112
0.974616
-0.00727701
0.988966
-0.0111567
0.940384
-0.0148758
0.894757
-0.0186507
0.85149
-0.0225107
0.810703
-0.0262118
0.771849
-0.0293081
0.735069
-0.0326175
0.700434
-0.0359366
0.66728
-0.0390004
0.635434
-0.0423856
0.605417
-0.0458266
0.576623
-0.0493939
0.549062
-0.0525995
0.522449
-0.055632
0.49701
-0.0584811
0.472518
-0.061055
0.449091
-0.0633437
0.426483
-0.0654154
0.404867
-0.067264
0.384087
-0.0688513
0.364095
-0.0701563
0.344928
-0.0711101
0.326506
-0.0716047
0.308767
-0.0715006
0.291732
-0.0710598
0.275616
-0.0707822
0.260464
-0.0706865
0.246047
-0.0702324
0.232159
-0.069302
0.218916
-0.0682356
0.206447
-0.067143
0.194692
-0.0659288
0.183541
-0.0645062
0.172938
-0.0630164
0.162975
-0.0615016
0.153578
-0.0598853
0.144629
-0.0581819
0.136126
-0.0564864
0.128132
-0.0548827
0.120738
-0.0529403
0.113445
-0.0506045
0.106
-0.0475674
0.0979097
-0.042869
0.087692
-0.0347042
0.0725336
-0.0216924
0.049387
-0.00631069
0.0190087
-0.000698131
0.00144391
-0.00220906
-0.000108066
0.974724
-0.00498606
0.993844
-0.00935774
0.944756
-0.0136588
0.899058
-0.0173455
0.855177
-0.0213149
0.814673
-0.0250356
0.775569
-0.0287658
0.7388
-0.0323474
0.704016
-0.0358047
0.670738
-0.0394159
0.639045
-0.0425043
0.608506
-0.0454351
0.579554
-0.0481653
0.551792
-0.0511203
0.525404
-0.0539708
0.499861
-0.0567723
0.475319
-0.0595207
0.451839
-0.0621058
0.429068
-0.0645635
0.407324
-0.066771
0.386294
-0.0687067
0.366031
-0.0703657
0.346587
-0.071767
0.327907
-0.0729943
0.309994
-0.0742032
0.292941
-0.0752501
0.276662
-0.075597
0.260811
-0.0751457
0.245596
-0.0745015
0.231515
-0.0739003
0.218315
-0.0730606
0.205607
-0.0718988
0.193531
-0.0705663
0.182209
-0.069237
0.171609
-0.0678099
0.161548
-0.0662269
0.151995
-0.0645785
0.142981
-0.0629059
0.134453
-0.0613178
0.126544
-0.0595268
0.118947
-0.0574086
0.111327
-0.0547608
0.103352
-0.0507999
0.0939487
-0.0439307
0.0808229
-0.032268
0.0608708
-0.0149659
0.0320849
-0.00310412
0.00714692
-6.62513e-05
-0.00159396
-0.00227531
0.000931847
0.973792
-0.00283798
0.997614
-0.00704832
0.948967
-0.0111763
0.903186
-0.0144903
0.858491
-0.0180289
0.818211
-0.0217945
0.779335
-0.0253091
0.742314
-0.0288562
0.707563
-0.0323856
0.674267
-0.0360742
0.642734
-0.0402073
0.612639
-0.0445055
0.583852
-0.0487584
0.556045
-0.0526176
0.529263
-0.0564665
0.50371
-0.0602113
0.479064
-0.0635808
0.455209
-0.0668261
0.432313
-0.0697828
0.410281
-0.072487
0.388998
-0.0748858
0.36843
-0.0769517
0.348653
-0.0786405
0.329596
-0.07985
0.311203
-0.0803777
0.293469
-0.0802805
0.276565
-0.0801209
0.260651
-0.0801723
0.245647
-0.0799241
0.231267
-0.0790616
0.217452
-0.0779195
0.204465
-0.0767548
0.192366
-0.0755263
0.18098
-0.07407
0.170153
-0.0725073
0.159985
-0.0709669
0.150455
-0.0693968
0.141411
-0.0678484
0.132905
-0.0662258
0.124921
-0.0643246
0.117046
-0.061979
0.108981
-0.0585346
0.0999077
-0.0525316
0.0879458
-0.0417937
0.0700849
-0.0247896
0.0438667
-0.00792428
0.0152196
-0.0014561
0.000678736
6.98319e-05
-0.00311989
-0.00220548
0.00152622
0.972266
-0.00150672
1.00065
-0.00538039
0.95284
-0.00924694
0.907053
-0.0121449
0.861389
-0.0154208
0.821487
-0.018848
0.782762
-0.0230893
0.746556
-0.0269582
0.711432
-0.0309165
0.678225
-0.0347708
0.646588
-0.0382183
0.616086
-0.041602
0.587236
-0.0452602
0.559703
-0.0492355
0.533239
-0.0530659
0.50754
-0.0567273
0.482726
-0.0604712
0.458953
-0.0640939
0.435936
-0.0675107
0.413698
-0.0707308
0.392218
-0.0736579
0.371357
-0.0762283
0.351223
-0.0784443
0.331812
-0.0803663
0.313125
-0.0821254
0.295228
-0.0837652
0.278205
-0.0847834
0.26167
-0.0848176
0.245682
-0.084332
0.230781
-0.0837994
0.21692
-0.0830488
0.203715
-0.0819062
0.191223
-0.0804605
0.179535
-0.0790149
0.168707
-0.077579
0.158549
-0.0760306
0.148906
-0.0744307
0.139811
-0.0728759
0.13135
-0.0711213
0.123166
-0.0689539
0.114879
-0.0658541
0.105881
-0.0605345
0.0945882
-0.0507793
0.0781906
-0.0346128
0.0539184
-0.0146067
0.0238606
-0.00355694
0.00416984
-0.000345736
-0.00253247
0.000205882
-0.00367151
-0.0019996
0.00215426
0.970112
0.000656195
1.00215
-0.00186441
0.955361
-0.00487663
0.910065
-0.00843038
0.864943
-0.011192
0.824249
-0.0142916
0.785862
-0.0176934
0.749957
-0.0212389
0.714977
-0.0252861
0.682273
-0.0295111
0.650813
-0.0342922
0.620868
-0.0392751
0.592219
-0.0440718
0.5645
-0.0486326
0.5378
-0.0533871
0.512295
-0.0582094
0.487548
-0.0627536
0.463497
-0.0671614
0.440344
-0.0713375
0.417874
-0.075237
0.396118
-0.0788142
0.374934
-0.0820209
0.35443
-0.0848031
0.334594
-0.0870831
0.315405
-0.0887022
0.296847
-0.0894157
0.278918
-0.0896745
0.261928
-0.0900172
0.246024
-0.0901278
0.230892
-0.0895157
0.216308
-0.0883814
0.20258
-0.0870958
0.189938
-0.0857877
0.178227
-0.0842734
0.167193
-0.0825884
0.156864
-0.0809741
0.147292
-0.0794557
0.138293
-0.0778204
0.129715
-0.0757848
0.121131
-0.0729323
0.112026
-0.0682099
0.101159
-0.0594108
0.085789
-0.0439512
0.062731
-0.0220703
0.0320375
-0.00644423
0.00823455
-0.00107132
-0.00120306
0.000326899
-0.00393069
0.000312026
-0.00365663
-0.00168757
0.00251875
0.967593
0.00259399
1.00207
0.00145141
0.956503
-0.000708561
0.912225
-0.00449073
0.868725
-0.00807786
0.827836
-0.011098
0.788882
-0.0145051
0.753365
-0.018456
0.718928
-0.0224469
0.686264
-0.026222
0.654588
-0.0300987
0.624744
-0.0341582
0.596278
-0.0387033
0.569045
-0.0435622
0.542659
-0.0482882
0.517021
-0.0530149
0.492275
-0.0579177
0.4684
-0.0628266
0.445253
-0.0675878
0.422635
-0.0721212
0.400651
-0.076398
0.379211
-0.0803048
0.358337
-0.0837576
0.338047
-0.0867601
0.318408
-0.0894315
0.299519
-0.0919181
0.281405
-0.0939433
0.263953
-0.0948921
0.246973
-0.094863
0.230863
-0.094501
0.215946
-0.0938837
0.201963
-0.0928184
0.188872
-0.0912238
0.176632
-0.0894614
0.165431
-0.0878448
0.155248
-0.0862045
0.145652
-0.0844934
0.136582
-0.0824483
0.12767
-0.079742
0.118425
-0.0755184
0.107803
-0.0676422
0.0932826
-0.0526946
0.0708415
-0.0298441
0.0398805
-0.0107142
0.0129076
-0.00303512
0.000555427
-0.000538684
-0.00369949
0.000149616
-0.00461899
0.000179145
-0.00368616
-0.00150843
0.00306773
0.964525
0.00468659
1.00045
0.00471845
0.956472
0.00389646
0.913047
0.000970577
0.871651
-0.00205257
0.830859
-0.00513781
0.791967
-0.0080649
0.756292
-0.0115113
0.722375
-0.0156599
0.690412
-0.0202478
0.659176
-0.0253828
0.629879
-0.0305679
0.601464
-0.035604
0.574081
-0.0409422
0.547997
-0.0467168
0.522795
-0.0525785
0.498136
-0.0583269
0.474148
-0.0640264
0.450952
-0.0695988
0.428208
-0.0750111
0.406064
-0.0801464
0.384346
-0.0849242
0.363115
-0.0892543
0.342377
-0.0930336
0.322187
-0.0961482
0.302633
-0.0982447
0.283502
-0.0994018
0.265111
-0.100373
0.247944
-0.101035
0.231526
-0.100935
0.215845
-0.100007
0.201036
-0.0985563
0.187421
-0.0969626
0.175038
-0.0952097
0.163678
-0.0932039
0.153242
-0.0911143
0.143562
-0.0889316
0.134399
-0.0862891
0.125027
-0.0824223
0.114558
-0.0752119
0.100592
-0.0607931
0.0788638
-0.0375265
0.047575
-0.0159294
0.0182834
-0.00594275
0.00292087
-0.00253104
-0.00285629
-0.00137874
-0.00485179
-0.000763223
-0.00523451
-0.000238325
-0.00421106
-0.00174675
0.00571498
0.95881
0.00728241
0.998884
0.00634202
0.957412
0.00607354
0.913315
0.00518324
0.872541
0.00194791
0.834095
-0.00175379
0.795669
-0.0048371
0.759375
-0.00842902
0.725967
-0.0116532
0.693636
-0.0154403
0.662963
-0.0194129
0.633852
-0.0238768
0.605927
-0.0291337
0.579338
-0.0345078
0.553371
-0.0398431
0.528131
-0.0455823
0.503875
-0.051685
0.480251
-0.0579163
0.457184
-0.0641671
0.434458
-0.070305
0.412202
-0.0762196
0.390261
-0.0818025
0.368698
-0.0869804
0.347555
-0.0916898
0.326896
-0.0957398
0.306683
-0.0994484
0.28721
-0.102866
0.268528
-0.105167
0.250245
-0.106138
0.232497
-0.106251
0.215958
-0.10586
0.200645
-0.104929
0.18649
-0.103214
0.173323
-0.10082
0.161284
-0.0984426
0.150865
-0.0958396
0.140959
-0.0929104
0.13147
-0.0888966
0.121013
-0.0819117
0.107573
-0.0680466
0.0867271
-0.0448385
0.0556557
-0.0211347
0.0238712
-0.00854154
0.00569021
-0.00396899
-0.00165167
-0.00235164
-0.00447364
-0.0015915
-0.00561194
-0.00104452
-0.00578148
-0.000468869
-0.00478672
-0.00221562
0.0146487
0.944162
0.0137808
0.999752
0.0109113
0.960281
0.00954828
0.914678
0.00926922
0.87282
0.00795191
0.835412
0.00517343
0.798447
0.0020228
0.762526
-0.00105281
0.729042
-0.00502386
0.697607
-0.00959032
0.66753
-0.0144252
0.638687
-0.0194151
0.610917
-0.024536
0.584459
-0.0303505
0.559185
-0.036828
0.534608
-0.0434408
0.510488
-0.0502058
0.487016
-0.0571358
0.464114
-0.0641779
0.4415
-0.0712274
0.419251
-0.0781709
0.397204
-0.0848848
0.375411
-0.091214
0.353884
-0.0969333
0.332616
-0.10197
0.31172
-0.106052
0.291292
-0.108754
0.27123
-0.110788
0.25228
-0.112469
0.234178
-0.113346
0.216834
-0.113067
0.200366
-0.111647
0.18507
-0.109659
0.171336
-0.107251
0.158875
-0.104051
0.147664
-0.100421
0.137329
-0.0954879
0.126537
-0.0879418
0.113467
-0.0745085
0.0941395
-0.0519501
0.0641687
-0.0256546
0.0293601
-0.00959931
0.00781597
-0.00301486
-0.000894238
-0.000440003
-0.00422653
0.000382172
-0.00529581
0.000321275
-0.00555104
-5.11923e-05
-0.00540902
-0.000221985
-0.00461592
-0.00243761
0.0222852
0.921876
0.0188409
1.0032
0.015632
0.96349
0.0121673
0.918143
0.0110435
0.873944
0.00993421
0.836521
0.00766721
0.800714
0.00459552
0.765597
0.0015805
0.732057
-0.000901655
0.700089
-0.00421622
0.670844
-0.0080064
0.642477
-0.0126193
0.61553
-0.0179365
0.589776
-0.0232427
0.564491
-0.0288574
0.540223
-0.035267
0.516898
-0.0422354
0.493984
-0.0495838
0.471462
-0.0572261
0.449143
-0.0649963
0.427021
-0.0727439
0.404952
-0.0803019
0.382969
-0.0875364
0.361119
-0.0943357
0.339415
-0.100553
0.317938
-0.106079
0.296817
-0.111291
0.276442
-0.115461
0.256449
-0.118122
0.23684
-0.119398
0.218111
-0.119581
0.200549
-0.119108
0.184596
-0.11747
0.169697
-0.114423
0.155829
-0.109934
0.143175
-0.103998
0.131393
-0.0953826
0.117921
-0.0814157
0.0995004
-0.058086
0.0708098
-0.0291135
0.0351963
-0.00791602
0.0081626
0.00211869
-0.00221875
0.00638016
-0.0051557
0.00758732
-0.00543368
0.00704729
-0.00475579
0.00532046
-0.00382421
0.00301917
-0.00310773
0.000971258
-0.00256801
-0.00146635
0.0244232
0.897453
0.0203842
1.00723
0.0182082
0.965666
0.0151724
0.921179
0.0136557
0.875461
0.0135401
0.836637
0.0128236
0.801431
0.0104959
0.767925
0.00772376
0.734829
0.00402555
0.703788
0.000552751
0.674317
-0.00343441
0.646464
-0.00785632
0.619952
-0.012615
0.594535
-0.0185349
0.570411
-0.0251427
0.546831
-0.0319499
0.523705
-0.0392422
0.501276
-0.0470425
0.479262
-0.0552802
0.45738
-0.063837
0.435578
-0.0725789
0.413694
-0.0813476
0.391738
-0.0899165
0.369688
-0.0980797
0.347578
-0.105593
0.325451
-0.112186
0.30341
-0.117262
0.281518
-0.121062
0.26025
-0.12421
0.239988
-0.126527
0.220428
-0.127831
0.201853
-0.127158
0.183924
-0.124676
0.167215
-0.121204
0.152357
-0.115512
0.137484
-0.106247
0.122128
-0.0904713
0.102146
-0.0641237
0.0731529
-0.0311563
0.0378424
-0.00439062
0.0084306
0.00936136
-0.00558938
0.0150397
-0.00789708
0.0162818
-0.00639785
0.0152668
-0.0044186
0.0130025
-0.00249157
0.00980052
-0.000622186
0.00605677
0.000636015
0.0023188
0.00116996
0.000852451
0.0190107
0.878443
0.0181788
1.00807
0.0174233
0.966422
0.0150203
0.923582
0.0130616
0.877419
0.0120641
0.837634
0.0122921
0.801203
0.0116596
0.768557
0.00997814
0.736511
0.00790838
0.705857
0.00514792
0.677078
0.00211869
0.649493
-0.00159551
0.623666
-0.0061452
0.599085
-0.0108758
0.575142
-0.0162784
0.552233
-0.022705
0.530132
-0.0298695
0.508441
-0.03776
0.487153
-0.0463335
0.465954
-0.0553986
0.444643
-0.0647966
0.423092
-0.0742891
0.401231
-0.083726
0.379124
-0.092913
0.356765
-0.101627
0.334165
-0.109729
0.311513
-0.117281
0.289069
-0.124152
0.267121
-0.129244
0.24508
-0.132598
0.223782
-0.134154
0.203409
-0.134079
0.183849
-0.13317
0.166305
-0.128577
0.147765
-0.119112
0.128019
-0.101695
0.104711
-0.0715572
0.0720074
-0.0342153
0.035811
-0.00442114
0.00804822
0.0118602
-0.00785076
0.0181432
-0.0118724
0.0196716
-0.00942546
0.0190311
-0.00575734
0.0170251
-0.00241259
0.0140837
0.000449768
0.0105056
0.00295593
0.00652331
0.00461833
0.00255197
0.0051413
0.00340442
0.0117163
0.866726
0.0149126
1.00487
0.0164382
0.964896
0.015481
0.924539
0.0148331
0.878067
0.0137981
0.838669
0.0145106
0.80049
0.0141258
0.768942
0.0126532
0.737983
0.0106094
0.707901
0.0084461
0.679241
0.00561216
0.652327
0.00228137
0.626997
-0.00161785
0.602984
-0.00683403
0.580358
-0.0126827
0.558082
-0.0190358
0.536485
-0.0261771
0.515582
-0.0340912
0.495067
-0.0428431
0.474706
-0.0523474
0.454147
-0.0624812
0.433226
-0.0730724
0.411822
-0.0838209
0.389873
-0.0944549
0.367399
-0.104833
0.344543
-0.114499
0.321179
-0.122832
0.297402
-0.129421
0.27371
-0.134911
0.25057
-0.138959
0.22783
-0.142202
0.206652
-0.144102
0.185748
-0.140559
0.162763
-0.131608
0.138814
-0.113688
0.110098
-0.0800706
0.0710939
-0.0429869
0.0349237
-0.0156591
0.00848316
-0.00127354
-0.00633734
0.00333048
-0.0124548
0.00528039
-0.0138223
0.00680858
-0.0109536
0.00745217
-0.00640093
0.00716467
-0.00212509
0.00590742
0.00170701
0.00427658
0.00458678
0.00234879
0.00654612
0.000704639
0.00678545
0.00410906
-0.00184869
0.868575
0.00547687
0.997545
0.0122052
0.958168
0.0134487
0.923296
0.0131807
0.878335
0.0111966
0.840653
0.011396
0.800291
0.0128015
0.767537
0.0133561
0.737429
0.0125166
0.708741
0.0110407
0.680717
0.00917615
0.654192
0.00676632
0.629407
0.00378494
0.605965
0.000432102
0.583711
-0.004097
0.562611
-0.00981235
0.5422
-0.0164338
0.522204
-0.0239932
0.502626
-0.0326488
0.483362
-0.0423267
0.463825
-0.0528157
0.443715
-0.0637904
0.422796
-0.0751542
0.401237
-0.0867171
0.378962
-0.098239
0.356065
-0.109324
0.332264
-0.119892
0.30797
-0.129822
0.283639
-0.138412
0.25916
-0.14523
0.234647
-0.149639
0.211062
-0.149419
0.185528
-0.142023
0.155367
-0.124322
0.121113
-0.0939238
0.0796995
-0.066216
0.043386
-0.04946
0.0181678
-0.0439744
0.00299756
-0.0393369
-0.0109748
-0.0332191
-0.0185726
-0.0251895
-0.0218519
-0.0168613
-0.0192818
-0.0101295
-0.0131328
-0.00571461
-0.00653995
-0.00358469
-0.000422901
-0.00262436
0.00362644
-0.00184226
0.00576402
-0.000995566
0.00593876
0.00311349
-0.00311271
0.871688
0.00428305
0.990149
0.0123
0.950151
0.0154345
0.920161
0.0157821
0.877988
0.0137282
0.842707
0.012673
0.801346
0.0120899
0.76812
0.0132084
0.73631
0.0133848
0.708564
0.0124668
0.681635
0.0108488
0.65581
0.00902817
0.631228
0.00648521
0.608508
0.00272902
0.587467
-0.00161716
0.566957
-0.00679504
0.547378
-0.0129706
0.528379
-0.0200242
0.50968
-0.0284271
0.491764
-0.0381643
0.473563
-0.0490262
0.454577
-0.0608176
0.434588
-0.0732556
0.413675
-0.086272
0.391979
-0.0995587
0.369352
-0.112546
0.345251
-0.124671
0.320095
-0.134819
0.293787
-0.143955
0.268296
-0.151085
0.241777
-0.152621
0.212598
-0.149758
0.182665
-0.13543
0.141039
-0.11184
0.0975234
-0.0920729
0.0599321
-0.0862877
0.0376007
-0.0855856