/*--------------------------------*- C++ -*----------------------------------*\
| =========                 |                                                 |
| \\      /  F ield         | OpenFOAM: The Open Source CFD Toolbox           |
|  \\    /   O peration     | Version:  v1912                                 |
|   \\  /    A nd           | Website:  www.openfoam.com                      |
|    \\/     M anipulation  |                                                 |
\*---------------------------------------------------------------------------*/
FoamFile
{
    version     2.0;
    format      ascii;
    class       volVectorField;
    location    "0.12";
    object      U;
}
// * * * * * * * * * * * * * * * * * * * * * * * * * * * * * * * * * * * * * //

dimensions      [0 1 -1 0 0 0 0];


internalField   nonuniform List<vector> 
6600
(
(39.8476 -0.0475301 0)
(40.0933 -0.0479686 1.02733e-20)
(40.1603 0.0462511 7.21508e-19)
(40.2187 0.145823 0)
(40.2466 0.262257 8.74182e-19)
(40.3084 0.392156 2.9213e-20)
(40.3569 0.543626 -3.24283e-20)
(40.4134 0.686903 -3.63624e-20)
(40.4568 0.855118 7.59577e-19)
(40.495 1.02744 -1.15011e-19)
(40.5064 1.21844 0)
(40.528 1.41643 -1.00339e-18)
(40.5302 1.64146 0)
(40.5368 1.89946 -1.10963e-18)
(40.5577 2.1544 -1.62638e-18)
(40.5293 2.42171 -8.95216e-19)
(40.4602 2.71633 0)
(40.4032 3.01192 0)
(40.3131 3.32958 1.61462e-18)
(40.2259 3.66121 -1.49414e-18)
(40.1231 4.01473 -2.28627e-19)
(40.0035 4.39008 -8.89355e-19)
(39.8681 4.78556 -1.69896e-18)
(39.7226 5.20835 3.93745e-19)
(39.5666 5.65527 1.47498e-18)
(39.3841 6.1228 0)
(39.1371 6.58099 3.79649e-18)
(38.9639 7.09173 0)
(38.7891 7.66161 -1.99165e-18)
(38.5432 8.26688 -1.32639e-18)
(38.2784 8.89009 -3.4109e-19)
(38.0323 9.58456 -1.71623e-18)
(37.7761 10.328 -7.23077e-19)
(37.4913 11.1016 1.50335e-18)
(37.2016 11.9299 3.5241e-19)
(36.9343 12.8277 1.82747e-18)
(36.6702 13.8021 3.56934e-18)
(36.4183 14.8238 3.54802e-18)
(36.1943 15.9196 -2.62986e-18)
(35.9793 17.0973 2.8162e-18)
(35.779 18.3478 1.50012e-18)
(35.6003 19.6846 0)
(35.4492 21.0983 -3.63692e-19)
(35.3498 22.6118 9.1141e-19)
(35.3365 24.2137 0)
(35.3859 25.9696 -6.85749e-19)
(35.411 27.6563 -1.84751e-18)
(35.7412 29.8271 0)
(34.1619 30.6012 0)
(24.5767 23.585 -1.64705e-18)
(39.727 -0.0433846 6.04157e-19)
(40.1783 -0.0688777 -6.07412e-19)
(40.2314 0.0626146 0)
(40.2797 0.189722 -1.13101e-20)
(40.337 0.324287 7.7057e-19)
(40.3834 0.485263 2.71231e-20)
(40.4428 0.643632 -1.14386e-22)
(40.4901 0.826607 -3.33367e-20)
(40.5491 1.01562 0)
(40.5748 1.21715 -1.2956e-18)
(40.6282 1.43665 -4.69963e-20)
(40.6577 1.65252 8.11012e-19)
(40.6862 1.88349 8.64893e-19)
(40.6654 2.0911 6.71797e-19)
(40.6437 2.33215 -3.67293e-21)
(40.6353 2.59054 9.40314e-20)
(40.6182 2.86021 -8.40149e-19)
(40.5792 3.16123 0)
(40.5412 3.47685 0)
(40.466 3.81915 1.54339e-18)
(40.3889 4.18142 2.19325e-19)
(40.285 4.56722 -1.17824e-18)
(40.1718 4.97181 -1.09725e-18)
(40.0362 5.40447 -1.2872e-18)
(39.8811 5.86741 -1.0901e-18)
(39.7098 6.3578 -4.6337e-19)
(39.5853 6.94823 -6.217e-19)
(39.3835 7.53807 -6.2856e-19)
(39.1329 8.10685 1.97735e-18)
(38.9287 8.7291 3.0165e-19)
(38.7443 9.41834 -2.59909e-18)
(38.5115 10.1136 2.41646e-18)
(38.2811 10.8463 1.73578e-18)
(38.0647 11.6431 -2.22574e-18)
(37.8477 12.4866 3.70117e-19)
(37.6242 13.3803 -1.86905e-18)
(37.4234 14.3173 1.47839e-18)
(37.2533 15.3295 -1.26836e-18)
(37.0962 16.405 -8.23444e-19)
(36.9719 17.5481 -9.26642e-19)
(36.8765 18.7602 0)
(36.8298 20.0495 0)
(36.8447 21.4092 2.8331e-20)
(36.9236 22.8601 -1.05786e-19)
(37.0573 24.3651 -1.15639e-18)
(37.2882 26.0246 7.08074e-19)
(37.5518 27.6591 3.41393e-18)
(38.0276 29.543 0)
(36.3762 29.9171 -4.2913e-18)
(25.4362 22.3799 1.85177e-18)
(39.6652 -0.0151965 -5.38318e-20)
(40.2888 -0.0649584 6.1962e-19)
(40.3368 0.0872828 5.96462e-19)
(40.3938 0.230959 -3.77107e-22)
(40.4381 0.381363 -1.15284e-19)
(40.5078 0.537565 2.48923e-20)
(40.5752 0.712253 0)
(40.6479 0.887776 0)
(40.6982 1.07695 0)
(40.7536 1.28191 6.73072e-19)
(40.7737 1.4962 -4.17652e-20)
(40.8042 1.73414 -8.1643e-19)
(40.8185 1.98676 -4.75299e-19)
(40.8681 2.29335 9.38804e-19)
(40.8837 2.56556 5.34975e-19)
(40.8686 2.86809 -8.66495e-20)
(40.8164 3.19417 1.66961e-18)
(40.7746 3.52009 -8.48973e-19)
(40.7072 3.87321 -9.95065e-19)
(40.6442 4.24085 0)
(40.5687 4.62988 -6.85302e-19)
(40.4769 5.04297 9.44911e-19)
(40.3733 5.47772 1.11038e-18)
(40.2641 5.93833 1.30341e-18)
(40.1465 6.42136 1.16576e-18)
(39.9995 6.92127 -1.35545e-19)
(39.7932 7.39687 -2.33443e-19)
(39.6801 7.94321 -7.11576e-19)
(39.5671 8.55939 -3.10679e-19)
(39.3777 9.19572 1.22206e-18)
(39.1868 9.84853 4.02845e-19)
(39.0263 10.5741 0)
(38.8595 11.3338 -2.00138e-18)
(38.6713 12.1195 5.37e-19)
(38.4926 12.9501 1.16856e-18)
(38.3541 13.8378 1.6098e-18)
(38.2288 14.7921 -9.39052e-19)
(38.1326 15.7795 -6.36179e-19)
(38.0852 16.8283 4.12834e-19)
(38.0649 17.9387 0)
(38.0847 19.1009 1.22109e-19)
(38.1513 20.3269 0)
(38.2724 21.6076 0)
(38.4717 22.9547 1.30117e-18)
(38.7944 24.3616 8.25898e-19)
(39.1949 25.8814 -2.0589e-18)
(39.6375 27.4279 -2.14545e-18)
(40.086 28.9958 0)
(38.1803 28.8814 -2.68529e-18)
(25.8571 20.8056 2.92887e-18)
(39.6141 -0.0102804 -5.5436e-19)
(40.4209 -0.0473188 3.99079e-21)
(40.4656 0.149342 -6.1205e-19)
(40.5262 0.276781 -5.35997e-19)
(40.5734 0.448883 -6.73109e-19)
(40.6359 0.645434 -3.04585e-19)
(40.7054 0.829371 -2.37078e-20)
(40.7611 1.03702 0)
(40.8242 1.24791 4.12446e-19)
(40.8585 1.46818 4.91424e-19)
(40.9178 1.71108 -3.56763e-20)
(40.9591 1.9359 -4.12833e-20)
(40.9949 2.194 -3.60276e-19)
(40.9709 2.4263 -1.37623e-19)
(40.984 2.72034 -3.64467e-20)
(40.9954 3.00649 -7.33683e-20)
(41.0005 3.30495 -5.35949e-20)
(40.9786 3.63419 9.56136e-19)
(40.961 3.9811 1.29975e-18)
(40.9095 4.35635 0)
(40.8564 4.75 1.3076e-19)
(40.7803 5.16974 0)
(40.696 5.60932 0)
(40.5957 6.07876 -2.58484e-19)
(40.4784 6.57403 8.05914e-19)
(40.3617 7.10589 9.30624e-19)
(40.2869 7.73497 -1.9324e-19)
(40.1307 8.34968 1.00555e-18)
(39.9386 8.93476 0)
(39.8072 9.57745 0)
(39.6975 10.2845 5.3018e-19)
(39.5478 10.9966 0)
(39.4123 11.7455 5.22594e-19)
(39.3073 12.5479 7.70533e-19)
(39.2143 13.3897 -1.40106e-18)
(39.1217 14.265 -1.33658e-18)
(39.0705 15.1691 8.23854e-19)
(39.0651 16.1387 -3.04997e-19)
(39.0876 17.1523 3.21306e-19)
(39.1629 18.2124 3.72591e-19)
(39.2866 19.3178 -8.65076e-19)
(39.4798 20.4722 0)
(39.7571 21.6691 0)
(40.1234 22.9242 -9.19779e-19)
(40.5579 24.1946 -1.99978e-18)
(41.0957 25.5774 -6.41571e-19)
(41.6929 27.0261 -3.73254e-18)
(42.1136 28.2335 4.12202e-18)
(39.7501 27.6464 5.97317e-18)
(25.8056 18.9276 0)
(39.5702 0.0098932 -1.65909e-21)
(40.59 -0.0219194 3.94841e-19)
(40.6049 0.228007 4.28108e-19)
(40.6837 0.341708 5.55646e-19)
(40.7243 0.524302 0)
(40.7887 0.700761 6.53401e-20)
(40.8615 0.895182 0)
(40.9503 1.09502 -2.0901e-20)
(41.0183 1.29623 -7.09479e-19)
(41.0802 1.53749 -4.87584e-19)
(41.1038 1.76534 2.86991e-20)
(41.143 2.05235 3.29606e-20)
(41.1818 2.32174 -3.66815e-20)
(41.2444 2.62715 -3.85434e-19)
(41.2628 2.93745 -8.27005e-19)
(41.2596 3.2774 5.58537e-20)
(41.238 3.63232 -1.04676e-18)
(41.2117 3.99172 7.93156e-20)
(41.1712 4.3749 -4.07121e-19)
(41.1344 4.77242 -2.12334e-19)
(41.087 5.19133 6.8764e-19)
(41.0238 5.63564 0)
(40.9571 6.10013 0)
(40.8877 6.59249 -3.26084e-19)
(40.8147 7.1058 -5.2426e-19)
(40.6988 7.60792 5.57777e-19)
(40.5462 8.10038 -1.46716e-19)
(40.4938 8.67793 0)
(40.4507 9.33249 1.83327e-19)
(40.3277 9.98782 -2.04202e-19)
(40.2139 10.6468 -5.38858e-19)
(40.1458 11.3752 -5.28877e-19)
(40.0799 12.1341 2.38321e-19)
(40.0006 12.9134 -1.86173e-19)
(39.9449 13.7275 2.07163e-19)
(39.947 14.5843 0)
(39.9718 15.4942 -1.79509e-19)
(40.0397 16.4195 5.44214e-19)
(40.173 17.3891 -2.4727e-19)
(40.3469 18.3955 -3.84321e-19)
(40.5775 19.427 7.5843e-19)
(40.8684 20.4933 0)
(41.2243 21.584 0)
(41.6614 22.6993 -1.91096e-18)
(42.2363 23.8417 4.17585e-18)
(42.8827 25.055 1.12459e-18)
(43.5482 26.3571 2.30437e-18)
(43.7218 27.221 -4.99622e-18)
(40.6772 26.0647 4.4492e-19)
(25.152 16.7467 -8.08871e-18)
(39.5403 0.0488871 3.4016e-19)
(40.766 0.00393151 -9.27376e-20)
(40.7773 0.301448 -4.36804e-19)
(40.8523 0.403978 1.62734e-19)
(40.9047 0.616461 0)
(40.9707 0.821528 2.5857e-19)
(41.0362 1.02882 -7.35501e-21)
(41.0946 1.25319 -1.9547e-19)
(41.1754 1.48298 3.19684e-19)
(41.2285 1.71327 0)
(41.2954 1.98486 2.05419e-20)
(41.3398 2.21205 1.15688e-19)
(41.3724 2.49394 -1.8207e-19)
(41.3859 2.78049 2.93265e-20)
(41.4142 3.08226 3.68888e-19)
(41.4483 3.38462 -3.87108e-20)
(41.4725 3.71486 3.61178e-19)
(41.4785 4.0709 -5.2097e-20)
(41.4826 4.44529 6.37172e-20)
(41.4619 4.84921 1.40648e-19)
(41.4336 5.27112 2.02681e-19)
(41.395 5.71703 -1.96239e-21)
(41.3453 6.18438 1.14006e-19)
(41.2866 6.68166 4.49959e-19)
(41.2134 7.20615 0)
(41.165 7.7869 -4.31219e-19)
(41.1429 8.43725 9.15852e-20)
(41.0391 9.05787 -4.11949e-21)
(40.9062 9.64743 -8.71079e-20)
(40.8538 10.3014 1.13232e-19)
(40.8303 11.0131 -8.23636e-20)
(40.7666 11.7176 3.19915e-19)
(40.7259 12.4506 0)
(40.735 13.2271 0)
(40.7686 14.036 0)
(40.8084 14.865 0)
(40.9041 15.703 6.78656e-19)
(41.0565 16.5913 -1.2708e-18)
(41.2446 17.5013 0)
(41.4951 18.4331 4.166e-20)
(41.8007 19.3837 -2.43425e-19)
(42.1809 20.3529 -2.72674e-18)
(42.6498 21.3322 1.49931e-18)
(43.2187 22.3373 0)
(43.8441 23.3226 1.62296e-18)
(44.5495 24.3896 -5.89471e-18)
(45.2146 25.5374 4.20531e-18)
(45.1804 26.0039 3.2157e-18)
(41.1997 24.3097 1.2015e-17)
(23.8086 14.2992 -8.99007e-18)
(39.5526 0.0637582 -3.35642e-19)
(40.9385 0.0183601 -5.05312e-19)
(40.9871 0.347463 4.01866e-21)
(41.0524 0.454355 -1.63771e-19)
(41.1069 0.68137 9.03176e-20)
(41.1844 0.868871 -4.09521e-21)
(41.262 1.07425 9.29605e-20)
(41.3436 1.30016 1.96254e-19)
(41.4149 1.52887 8.9187e-20)
(41.4946 1.79956 -5.13011e-21)
(41.5375 2.03304 -4.19858e-20)
(41.5974 2.35327 -9.64145e-20)
(41.6726 2.64274 1.56566e-19)
(41.7383 2.95282 0)
(41.7703 3.29751 0)
(41.7861 3.66399 9.6172e-21)
(41.8024 4.04486 1.55812e-19)
(41.795 4.44255 0)
(41.7945 4.85415 1.47679e-20)
(41.7867 5.28389 -2.29808e-19)
(41.7754 5.72925 -2.28559e-19)
(41.7491 6.20203 3.53781e-21)
(41.7233 6.6904 0)
(41.6982 7.20395 -1.87044e-19)
(41.6746 7.73329 -2.82659e-20)
(41.5908 8.23189 3.15692e-20)
(41.4917 8.73421 0)
(41.4989 9.32177 0)
(41.5272 9.98842 -1.98082e-19)
(41.4781 10.6469 1.2101e-19)
(41.4438 11.2969 4.57542e-20)
(41.4714 12.0053 4.21475e-20)
(41.5068 12.7354 1.44361e-19)
(41.5308 13.4745 -3.94773e-19)
(41.5866 14.2333 8.70445e-19)
(41.715 15.019 4.04087e-19)
(41.8726 15.8472 -4.90403e-19)
(42.0778 16.6693 7.36964e-19)
(42.3554 17.5144 -1.48768e-18)
(42.676 18.3708 5.52009e-20)
(43.0563 19.2265 -2.94514e-19)
(43.4979 20.0891 1.40881e-18)
(44.0017 20.9498 2.25855e-18)
(44.5673 21.7943 -2.50893e-18)
(45.2659 22.6468 1.61949e-18)
(46.0364 23.6066 0)
(46.5563 24.4079 2.60326e-18)
(46.0404 24.5938 4.03976e-18)
(40.7921 22.2095 -8.22563e-18)
(21.6233 11.6126 -2.52502e-18)
(39.593 0.0776823 1.4446e-19)
(41.1349 0.0302999 2.00861e-19)
(41.1986 0.410456 1.24981e-21)
(41.3007 0.496775 -2.2168e-20)
(41.3312 0.769636 -1.06623e-19)
(41.3988 0.976149 -1.91279e-21)
(41.4799 1.20532 -7.07837e-20)
(41.551 1.44315 -1.84337e-20)
(41.6333 1.69927 -8.49011e-20)
(41.6971 1.93911 3.90312e-20)
(41.7864 2.2393 -9.82394e-21)
(41.8429 2.48052 -4.20185e-20)
(41.8777 2.78662 8.31242e-20)
(41.9313 3.0993 3.47099e-22)
(41.9862 3.4076 5.98654e-20)
(42.0499 3.73097 -7.39931e-20)
(42.0929 4.09033 -3.1303e-20)
(42.1408 4.46111 0)
(42.1671 4.86675 0)
(42.1885 5.29326 0)
(42.1935 5.74192 7.9332e-21)
(42.1983 6.20971 -3.44079e-20)
(42.1909 6.69907 1.18127e-19)
(42.1778 7.21447 1.49119e-20)
(42.1492 7.75945 0)
(42.1691 8.37185 0)
(42.2092 9.03545 -1.61375e-19)
(42.1644 9.65621 6.59142e-20)
(42.0867 10.2315 -1.01995e-19)
(42.1073 10.8668 1.20114e-19)
(42.1717 11.5627 3.56158e-20)
(42.1901 12.2411 4.09475e-19)
(42.233 12.9315 -1.70345e-19)
(42.341 13.6496 7.19312e-19)
(42.4825 14.3889 -4.37691e-19)
(42.629 15.1355 -1.92705e-19)
(42.835 15.8684 1.58277e-19)
(43.1035 16.6355 6.55621e-19)
(43.4046 17.4022 6.31231e-19)
(43.7643 18.1671 1.07923e-18)
(44.175 18.9283 -2.72901e-19)
(44.6525 19.6837 2.08477e-18)
(45.208 20.419 -2.31887e-18)
(45.871 21.1573 0)
(46.5714 21.8656 0)
(47.3385 22.7189 0)
(47.597 23.1678 0)
(46.5631 23.0387 0)
(39.7985 19.9835 -4.70439e-18)
(18.5368 8.78823 7.72786e-18)
(39.6595 0.0945506 -1.44888e-19)
(41.3631 0.0389974 0)
(41.4108 0.476166 0)
(41.5189 0.535745 2.18697e-20)
(41.578 0.818361 1.20672e-20)
(41.6648 1.02123 5.06099e-21)
(41.7558 1.24578 -2.14725e-20)
(41.854 1.47786 1.84925e-20)
(41.9302 1.72028 -1.06188e-19)
(42.0247 2.00521 -4.46699e-20)
(42.0767 2.25143 5.13175e-20)
(42.1776 2.59695 -1.81345e-19)
(42.2868 2.89605 -1.962e-19)
(42.3712 3.2357 0)
(42.4355 3.61306 -6.1932e-20)
(42.4723 4.00611 9.10061e-20)
(42.5443 4.40632 1.14214e-21)
(42.5616 4.84132 2.64809e-19)
(42.6063 5.26964 -3.36748e-19)
(42.6379 5.72573 0)
(42.6674 6.19387 0)
(42.6856 6.68999 -2.57483e-19)
(42.7039 7.19888 1.73901e-19)
(42.7253 7.72499 3.66137e-19)
(42.7489 8.26055 8.34469e-20)
(42.7076 8.75615 -3.59596e-19)
(42.6603 9.25763 4.8733e-19)
(42.7176 9.83413 -5.5831e-19)
(42.8121 10.4903 2.80506e-19)
(42.8325 11.1313 -2.42276e-19)
(42.8609 11.7436 1.44107e-19)
(42.9679 12.4041 -4.05261e-19)
(43.0901 13.0813 3.66706e-19)
(43.1958 13.7555 -5.36551e-19)
(43.331 14.4295 0)
(43.5444 15.1104 -5.78257e-19)
(43.7905 15.825 -5.61488e-19)
(44.0772 16.514 1.60852e-19)
(44.4328 17.2049 1.36586e-18)
(44.8254 17.8869 -1.33828e-18)
(45.2718 18.5482 -2.44716e-19)
(45.773 19.1938 -2.40331e-18)
(46.3326 19.8229 5.67532e-18)
(46.9214 20.404 3.89971e-19)
(47.6394 21.0093 4.56617e-19)
(48.2947 21.6398 -2.24248e-18)
(48.3129 21.8204 0)
(46.2846 21.2714 4.19285e-18)
(37.4712 17.369 -2.23823e-18)
(14.4091 5.83787 0)
(39.7362 0.111971 -2.527e-22)
(41.6167 0.0540619 -1.49919e-22)
(41.662 0.5108 1.06471e-19)
(41.757 0.564869 0)
(41.8303 0.879795 2.10226e-21)
(41.9055 1.10232 1.05947e-19)
(41.9857 1.33743 0)
(42.0753 1.5823 -1.5919e-19)
(42.1959 1.8465 1.16089e-19)
(42.2809 2.09804 -1.06795e-20)
(42.4083 2.42301 -2.72323e-19)
(42.4753 2.67765 1.10786e-20)
(42.5402 3.01525 1.31789e-19)
(42.6322 3.33636 0)
(42.7209 3.65955 0)
(42.8204 4.00121 0)
(42.8892 4.38014 3.35387e-19)
(42.9736 4.76424 -2.67164e-19)
(43.0321 5.19517 6.20715e-19)
(43.0978 5.63909 -6.22148e-20)
(43.1457 6.10825 1.42938e-19)
(43.1953 6.59302 1.77098e-19)
(43.2356 7.09815 -8.06015e-19)
(43.2708 7.62455 -6.63132e-19)
(43.2866 8.17905 0)
(43.3618 8.79995 3.5707e-19)
(43.4644 9.46778 -9.24599e-19)
(43.4843 10.0861 5.32138e-19)
(43.4538 10.6373 -3.05974e-19)
(43.5294 11.2298 1.78697e-19)
(43.6666 11.8856 -2.43212e-19)
(43.7441 12.5163 9.28136e-19)
(43.8374 13.1397 -9.86012e-19)
(44.0075 13.7755 1.41297e-18)
(44.2194 14.4227 5.85456e-19)
(44.4303 15.0689 -1.38482e-18)
(44.6913 15.6766 1.75088e-18)
(45.0156 16.3024 -1.13724e-18)
(45.3613 16.9115 3.20936e-20)
(45.7541 17.4995 0)
(46.1889 18.0683 1.94097e-18)
(46.6786 18.6176 1.33925e-18)
(47.2226 19.1191 1.5389e-19)
(47.8884 19.6217 -3.84147e-18)
(48.6345 20.1751 -1.3441e-19)
(48.9511 20.4523 -2.6809e-18)
(48.5476 20.3808 0)
(45.3508 19.2715 4.32661e-18)
(34.3255 14.5421 -7.27248e-18)
(9.17394 2.75766 0)
(39.8281 0.135352 0)
(41.8981 0.0545965 0)
(41.9415 0.510034 -1.3663e-20)
(42.0167 0.575837 5.81211e-21)
(42.0994 0.896723 -1.42113e-19)
(42.216 1.07224 -1.08504e-19)
(42.3078 1.32234 0)
(42.42 1.5826 1.59556e-19)
(42.5236 1.83729 -2.81965e-19)
(42.658 2.12838 0)
(42.7347 2.38389 4.71544e-19)
(42.8821 2.73214 -7.25664e-20)
(43.012 3.04334 3.01119e-20)
(43.1389 3.40349 -3.35726e-20)
(43.2312 3.81223 0)
(43.3238 4.22363 0)
(43.4483 4.65343 -1.35758e-19)
(43.5154 5.11035 -2.82726e-19)
(43.6039 5.55363 1.10663e-19)
(43.6796 6.03019 -4.71841e-20)
(43.7491 6.51819 1.08172e-19)
(43.8118 7.02912 -6.19671e-20)
(43.8716 7.55316 5.00302e-19)
(43.9334 8.08966 2.05118e-19)
(43.9973 8.62553 -3.85243e-19)
(44.0009 9.11612 -5.75023e-19)
(43.9905 9.59743 3.49209e-19)
(44.0786 10.1414 5.75023e-19)
(44.2268 10.7738 0)
(44.3081 11.3933 0)
(44.3727 11.9553 0)
(44.5229 12.5459 -6.62467e-19)
(44.7003 13.151 -4.77875e-19)
(44.8533 13.7462 -4.69244e-19)
(45.0224 14.3243 7.3844e-19)
(45.2667 14.887 8.96569e-19)
(45.5488 15.4795 -3.92708e-19)
(45.8552 16.0323 1.25519e-18)
(46.219 16.5683 -7.32794e-19)
(46.6115 17.0816 -9.74415e-19)
(47.0486 17.5625 -1.19478e-18)
(47.5288 18.0074 1.33216e-18)
(48.0767 18.4381 0)
(48.64 18.8338 2.06795e-18)
(49.195 19.1763 -1.10328e-18)
(49.2778 19.2292 1.41336e-18)
(48.2272 18.8322 0)
(43.2812 16.9394 -2.08932e-18)
(29.5636 11.1246 1.20985e-18)
(5.32878 0.632962 0)
(39.9467 0.145517 -9.8722e-20)
(42.151 0.0447165 0)
(42.2306 0.507784 -2.33403e-19)
(42.3139 0.577107 1.6564e-19)
(42.3514 0.92041 1.38924e-19)
(42.4587 1.1082 -6.38017e-21)
(42.5842 1.36622 7.10064e-21)
(42.6902 1.61449 0)
(42.8167 1.89084 2.71884e-19)
(42.9408 2.1488 -2.11827e-19)
(43.1136 2.47329 -1.98905e-19)
(43.211 2.75808 2.53177e-19)
(43.3398 3.10223 -1.83387e-19)
(43.4498 3.43441 -4.77667e-20)
(43.6026 3.74866 2.73809e-20)
(43.7312 4.13059 0)
(43.8323 4.50647 -3.08987e-19)
(43.9553 4.91386 3.60823e-19)
(44.0607 5.36414 6.29378e-20)
(44.168 5.82561 -3.06488e-21)
(44.2641 6.30741 7.20269e-20)
(44.3549 6.80695 0)
(44.4394 7.32183 1.03869e-19)
(44.5181 7.85355 4.21679e-19)
(44.5761 8.40948 4.89609e-19)
(44.6878 9.02138 5.78125e-19)
(44.8391 9.68176 0)
(44.9112 10.2952 -4.06673e-19)
(44.9059 10.8174 -8.83555e-19)
(45.0038 11.3533 4.81559e-19)
(45.1871 11.9596 -1.03252e-18)
(45.299 12.5409 -5.02606e-19)
(45.4038 13.0916 8.87072e-19)
(45.5869 13.6367 -3.2198e-19)
(45.8231 14.1843 -7.44802e-19)
(46.0543 14.7336 -3.83547e-19)
(46.3154 15.2217 -5.36258e-19)
(46.6361 15.7127 0)
(46.9655 16.1776 -8.85407e-19)
(47.3276 16.6078 1.96408e-18)
(47.7209 17.0064 1.20851e-18)
(48.1642 17.3868 -1.43102e-18)
(48.6289 17.7065 1.82414e-18)
(49.2891 18.0787 -9.28451e-19)
(49.5384 18.1888 2.39402e-18)
(49.2382 18.0374 -6.06772e-21)
(47.0105 17.1259 0)
(39.9486 14.2869 4.24746e-18)
(23.9347 7.53395 -3.58342e-18)
(2.77832 -0.206961 -1.28228e-18)
(40.0417 0.152618 9.89958e-20)
(42.4227 0.0230006 -1.59591e-19)
(42.5144 0.510306 1.37189e-19)
(42.6094 0.54165 -1.62776e-19)
(42.6629 0.873728 -1.23867e-19)
(42.7836 1.05206 -8.13203e-21)
(42.9214 1.27617 4.65474e-21)
(43.0574 1.55228 0)
(43.2017 1.7984 -2.24745e-19)
(43.3504 2.09863 3.49615e-19)
(43.4873 2.3702 0)
(43.6687 2.68408 -2.27039e-20)
(43.8249 3.02402 4.60934e-21)
(44.0259 3.39836 2.44229e-19)
(44.1446 3.84421 -3.60429e-19)
(44.3038 4.24355 -2.25481e-21)
(44.4813 4.70544 4.88229e-20)
(44.6172 5.17256 0)
(44.7437 5.64233 -1.83364e-19)
(44.8706 6.13131 4.00976e-19)
(44.9812 6.64076 -4.61819e-20)
(45.0825 7.16617 0)
(45.1787 7.70195 0)
(45.27 8.24581 -2.06305e-19)
(45.3591 8.78491 9.01859e-20)
(45.4032 9.28085 -6.59849e-19)
(45.4106 9.74322 2.41596e-19)
(45.4951 10.2392 -1.38223e-19)
(45.6688 10.8326 4.34801e-19)
(45.791 11.4318 1.90827e-19)
(45.8609 11.9453 5.90545e-19)
(46.0058 12.4598 -6.27013e-19)
(46.1996 12.9906 4.01966e-19)
(46.369 13.5117 -4.07247e-19)
(46.5313 14.0054 -4.72988e-19)
(46.7542 14.4566 -5.03388e-19)
(47.0238 14.9384 0)
(47.299 15.3753 1.20175e-18)
(47.6145 15.7803 -4.47327e-19)
(47.9515 16.1546 -1.06576e-18)
(48.3267 16.4965 1.26528e-18)
(48.7214 16.7823 -3.22735e-20)
(49.2861 17.1239 -9.01291e-19)
(49.5627 17.2651 -2.10372e-20)
(49.503 17.2263 -1.28088e-18)
(48.5081 16.7843 -3.05619e-18)
(44.7572 15.3361 1.71681e-18)
(34.9708 11.6094 0)
(15.4201 3.93772 -2.27637e-18)
(0.558489 -0.263079 4.38518e-18)
(40.1468 0.153301 3.09575e-22)
(42.6752 0.0446888 1.60447e-19)
(42.7874 0.511384 -5.45243e-20)
(42.8736 0.512813 -1.81908e-21)
(42.9388 0.847408 1.24128e-19)
(43.0384 1.02187 0)
(43.1762 1.25487 0)
(43.321 1.46916 -7.18568e-21)
(43.5041 1.76586 3.90843e-19)
(43.6699 2.02545 -1.41105e-19)
(43.8435 2.33238 1.18639e-20)
(44.0287 2.65894 -2.72503e-20)
(44.2039 2.97479 1.24188e-19)
(44.3466 3.30929 -1.26858e-19)
(44.5766 3.62589 5.19402e-19)
(44.7305 4.03831 -1.15253e-19)
(44.8715 4.41252 1.35288e-19)
(45.0449 4.84945 3.71617e-20)
(45.204 5.30899 -3.92788e-19)
(45.3553 5.79575 -2.60922e-19)
(45.4962 6.29431 2.51372e-21)
(45.6279 6.80864 -6.62367e-20)
(45.7501 7.33712 0)
(45.863 7.87544 -2.87438e-19)
(45.9537 8.43147 2.09035e-21)
(46.0753 9.02526 6.13503e-20)
(46.2547 9.678 7.08029e-20)
(46.3652 10.2988 1.81024e-19)
(46.362 10.8044 0)
(46.4374 11.282 1.16894e-19)
(46.6225 11.8343 6.52152e-19)
(46.7452 12.3745 5.86973e-19)
(46.829 12.8657 -3.05341e-19)
(46.9774 13.3306 6.30566e-19)
(47.1922 13.7867 -5.1295e-19)
(47.4095 14.2598 -3.10749e-19)
(47.6296 14.6541 0)
(47.899 15.0358 -8.0515e-19)
(48.1692 15.3895 -5.04898e-19)
(48.4603 15.7046 5.6396e-19)
(48.7642 15.9743 -6.68827e-19)
(49.1671 16.2748 7.63828e-19)
(49.5027 16.4831 0)
(49.5583 16.5117 5.15125e-19)
(49.1809 16.3505 0)
(47.0527 15.5737 7.53124e-19)
(40.9377 13.414 -1.699e-18)
(27.4965 8.60367 9.54429e-19)
(7.17759 1.44609 0)
(-0.909386 -0.10252 2.84431e-19)
(40.2876 0.111738 4.70481e-23)
(42.9436 0.0236349 5.47431e-23)
(43.0163 0.457347 5.6045e-20)
(43.1172 0.418568 2.84432e-22)
(43.2317 0.727752 2.45773e-21)
(43.3678 0.866059 3.87427e-22)
(43.5065 1.10715 -4.31248e-22)
(43.711 1.3558 1.07027e-21)
(43.8605 1.54574 -1.45335e-19)
(44.0697 1.84741 -3.11292e-21)
(44.2774 2.12542 -1.76273e-21)
(44.472 2.41608 4.0478e-21)
(44.7135 2.79554 1.38433e-19)
(44.957 3.16845 -1.66138e-19)
(45.1271 3.62038 -2.06502e-19)
(45.3617 4.0188 1.15122e-19)
(45.5931 4.50791 -1.3089e-19)
(45.7961 4.97545 -5.84577e-21)
(45.9793 5.48004 -6.84209e-21)
(46.1512 5.99061 0)
(46.3084 6.51972 -9.32379e-21)
(46.4453 7.0689 -5.12075e-21)
(46.5709 7.62528 5.72441e-21)
(46.6815 8.18608 0)
(46.7802 8.73891 0)
(46.8509 9.25699 2.5971e-19)
(46.8592 9.72002 0)
(46.9034 10.1755 -1.81262e-19)
(47.0644 10.7266 0)
(47.2077 11.3138 8.61107e-21)
(47.2598 11.7952 -3.03831e-19)
(47.3467 12.2432 2.15081e-20)
(47.5101 12.7051 -4.13499e-19)
(47.6699 13.1663 3.67834e-20)
(47.8011 13.6032 2.30154e-19)
(47.963 13.9652 3.50882e-19)
(48.1815 14.3583 -1.21017e-20)
(48.3937 14.7127 0)
(48.628 15.0264 -8.19087e-21)
(48.8752 15.3043 9.5236e-21)
(49.1887 15.59 0)
(49.5374 15.843 -1.185e-20)
(49.6441 15.9096 -5.668e-20)
(49.4769 15.8792 -4.82048e-19)
(48.1556 15.4707 -9.83685e-21)
(44.1596 14.1353 0)
(34.8565 10.9503 0)
(17.6446 4.9357 1.30529e-19)
(2.64194 0.488317 -1.29208e-19)
(-1.54675 -0.020725 2.90531e-19)
(40.3222 0.0509486 1.17483e-19)
(43.1655 -0.0561314 1.32884e-19)
(43.2222 0.340296 7.42146e-20)
(43.3198 0.32931 8.85317e-20)
(43.4498 0.629751 9.48266e-20)
(43.5885 0.736398 -1.14411e-19)
(43.7461 0.982311 0)
(43.9227 1.17647 0)
(44.1722 1.46759 9.59681e-20)
(44.3699 1.67007 3.11254e-21)
(44.5846 1.98012 -1.26231e-19)
(44.8443 2.29812 -9.08882e-21)
(45.0507 2.57854 -1.77315e-19)
(45.288 2.92151 2.10716e-19)
(45.5657 3.24807 2.714e-19)
(45.7766 3.67485 0)
(45.9615 4.05753 0)
(46.1987 4.52518 5.85071e-21)
(46.3965 4.99902 6.85089e-21)
(46.6032 5.50544 -2.94702e-19)
(46.7938 6.03376 9.32086e-21)
(46.9635 6.5765 0)
(47.1216 7.12973 0)
(47.2617 7.69056 -6.35638e-20)
(47.3765 8.26015 -3.10343e-19)
(47.488 8.84899 9.18046e-20)
(47.6623 9.49798 0)
(47.7964 10.1437 -2.33274e-19)
(47.7871 10.6704 0)
(47.798 11.1122 -8.60826e-21)
(47.9267 11.616 0)
(48.0335 12.1264 0)
(48.0813 12.5809 1.12804e-19)
(48.158 12.9886 1.31172e-19)
(48.3068 13.3655 0)
(48.486 13.7848 0)
(48.6457 14.1213 1.20948e-20)
(48.837 14.4277 0)
(49.028 14.7087 8.18539e-21)
(49.2557 14.9777 -3.18491e-19)
(49.5478 15.2452 3.39193e-19)
(49.6414 15.3567 2.48987e-20)
(49.5573 15.4079 1.48788e-20)
(48.7227 15.215 -5.3876e-19)
(46.1145 14.399 -3.10879e-19)
(39.5288 12.2502 1.77469e-18)
(26.3325 7.89273 -7.96401e-19)
(7.51589 1.85545 -9.12745e-19)
(-0.440686 0.213024 7.53528e-19)
(-1.83381 -0.0344567 0)
(40.2881 0.0311565 -1.15847e-19)
(43.3428 -0.123163 1.58443e-19)
(43.4315 0.217699 -7.28462e-20)
(43.5468 0.208263 1.05006e-19)
(43.6732 0.461635 -1.00598e-19)
(43.8679 0.548195 1.1774e-19)
(44.0461 0.735032 9.38045e-21)
(44.2475 0.954663 -1.04442e-20)
(44.4563 1.11969 -8.28029e-20)
(44.7366 1.39831 -1.45985e-20)
(44.9866 1.62138 1.34289e-19)
(45.2354 1.91984 3.55507e-19)
(45.5695 2.29118 -2.33445e-19)
(45.843 2.67616 -1.92676e-19)
(46.1072 3.10765 -8.91335e-19)
(46.406 3.51375 4.26282e-20)
(46.7172 4.01981 -4.75814e-20)
(46.9669 4.49687 4.86659e-19)
(47.2132 5.02095 6.88086e-20)
(47.4703 5.56523 2.17575e-19)
(47.6831 6.13526 0)
(47.8615 6.71722 0)
(48.0181 7.31342 0)
(48.1452 7.91551 0)
(48.245 8.50988 3.07629e-19)
(48.3226 9.07833 -7.95397e-19)
(48.3246 9.58215 0)
(48.2973 10.029 7.51097e-19)
(48.3918 10.5426 0)
(48.528 11.1299 0)
(48.555 11.6103 -7.6248e-19)
(48.5495 12.0173 4.22148e-19)
(48.6292 12.4226 -9.55221e-19)
(48.7517 12.8326 2.7589e-19)
(48.8459 13.2409 0)
(48.9287 13.5424 0)
(49.071 13.8649 4.20418e-19)
(49.2109 14.1666 -1.4385e-18)
(49.3757 14.4387 0)
(49.6098 14.7205 -9.43026e-19)
(49.725 14.9134 1.38728e-18)
(49.7143 14.9867 -1.63316e-18)
(49.2027 14.938 9.40655e-19)
(47.4246 14.4314 -1.0985e-18)
(42.51 12.9311 2.77666e-18)
(32.0055 9.62154 -2.43694e-18)
(14.1914 3.9517 1.57043e-18)
(2.04566 0.788707 -3.49565e-18)
(-1.93344 0.237784 4.13313e-18)
(-1.77718 0.0813412 -2.67314e-18)
(40.2141 0.0249591 -2.7455e-19)
(43.4646 -0.180576 1.90526e-20)
(43.6097 0.14184 0)
(43.7067 0.0892886 -1.92036e-19)
(43.7743 0.336438 -4.90001e-19)
(43.9702 0.357409 1.64913e-20)
(44.201 0.545217 0)
(44.4218 0.69881 0)
(44.7044 0.939588 -2.87245e-20)
(44.9541 1.13365 3.19984e-20)
(45.2544 1.41885 -6.52396e-19)
(45.552 1.6713 4.22229e-19)
(45.8194 1.92982 4.21415e-19)
(46.1529 2.23939 -5.50202e-19)
(46.4827 2.59391 5.92276e-19)
(46.7815 3.02519 9.51398e-20)
(47.0501 3.42123 -1.02274e-18)
(47.3437 3.89824 -1.56636e-18)
(47.6221 4.3985 0)
(47.8633 4.93806 7.43592e-19)
(48.1079 5.50128 8.66398e-19)
(48.3286 6.08973 0)
(48.5254 6.69532 -1.1652e-18)
(48.6936 7.30656 0)
(48.8277 7.92162 0)
(48.9307 8.53768 7.92914e-19)
(49.0675 9.19931 5.23704e-19)
(49.2064 9.89366 1.16304e-18)
(49.1975 10.4923 0)
(49.1217 10.9447 0)
(49.1272 11.4179 3.61358e-19)
(49.1737 11.9102 4.45074e-19)
(49.1828 12.3486 1.56011e-18)
(49.1726 12.7288 9.74597e-21)
(49.214 13.034 1.25579e-20)
(49.3316 13.4025 -1.49923e-18)
(49.4328 13.7071 -1.96521e-20)
(49.5563 13.9685 1.93068e-18)
(49.721 14.2294 1.11026e-18)
(49.8615 14.4913 5.83152e-19)
(49.8814 14.5771 1.38631e-18)
(49.5149 14.5897 3.51083e-20)
(48.2032 14.3137 -1.88028e-18)
(44.3596 13.2237 -1.08169e-18)
(35.8725 10.6464 -3.05703e-18)
(20.6913 5.91457 3.4236e-18)
(5.16824 1.52249 -1.52622e-18)
(-0.967136 0.504352 0)
(-2.54187 0.2738 0)
(-1.63252 0.17017 5.25364e-19)
(40.1013 0.0290487 8.45031e-19)
(43.4806 -0.248852 3.37318e-19)
(43.69 0.0207799 -3.6941e-19)
(43.8086 -0.127734 1.34659e-20)
(43.9028 0.123372 9.72781e-19)
(44.1323 0.1362 -1.7496e-20)
(44.3687 0.245383 0)
(44.6539 0.393728 -8.21136e-19)
(44.8938 0.511876 -3.08232e-20)
(45.2054 0.720726 -2.37175e-21)
(45.5189 0.919924 1.38826e-18)
(45.8773 1.20695 -7.23475e-19)
(46.2671 1.54068 4.02933e-21)
(46.6102 1.90814 4.79552e-19)
(46.9689 2.28817 0)
(47.3552 2.69565 0)
(47.7328 3.20436 7.90767e-19)
(48.0793 3.70304 1.21525e-18)
(48.411 4.25785 0)
(48.7488 4.83709 -7.41227e-19)
(49.0582 5.45063 -8.63479e-19)
(49.3067 6.09191 -2.68957e-19)
(49.5062 6.75297 1.75739e-19)
(49.6627 7.42773 1.12507e-18)
(49.7735 8.09925 3.99072e-19)
(49.8415 8.75934 4.66262e-19)
(49.8447 9.36562 -1.52174e-18)
(49.74 9.86674 -1.13529e-18)
(49.7193 10.3717 1.40576e-18)
(49.7919 10.9736 -1.57799e-18)
(49.7856 11.4887 0)
(49.6809 11.8917 0)
(49.6238 12.2606 3.63123e-20)
(49.6545 12.6099 -1.20426e-18)
(49.7049 12.9967 1.3936e-18)
(49.7139 13.259 2.35145e-18)
(49.7749 13.5104 -8.70549e-19)
(49.8764 13.7711 -1.99526e-18)
(50.0165 14.0785 -2.11506e-18)
(50.0529 14.1933 -1.22819e-18)
(49.7674 14.2411 -2.75387e-20)
(48.7447 14.1146 1.64223e-18)
(45.7179 13.3545 0)
(38.8197 11.3137 1.07094e-18)
(25.6573 7.32763 1.20503e-18)
(8.37912 2.3688 1.34066e-18)
(0.544902 0.75747 4.50463e-18)
(-2.22704 0.380147 -1.67875e-18)
(-2.59865 0.3083 0)
(-1.38456 0.198012 0)
(39.954 0.0330213 3.5445e-21)
(43.4332 -0.293548 -6.44771e-19)
(43.7023 -0.105707 3.80202e-19)
(43.802 -0.318812 -8.72765e-19)
(43.9541 -0.0917269 -5.28368e-19)
(44.1176 -0.104602 -1.09351e-21)
(44.3923 0.0610578 2.13761e-20)
(44.6912 0.109496 7.65121e-19)
(45.0205 0.264985 6.04984e-20)
(45.3434 0.426892 7.75662e-20)
(45.6909 0.615674 -6.88088e-19)
(46.0349 0.818723 -1.03424e-19)
(46.4045 1.04143 -1.05005e-18)
(46.8378 1.31614 -1.25905e-18)
(47.2438 1.67102 1.89411e-19)
(47.6265 2.06718 -2.11277e-19)
(48.0137 2.47074 0)
(48.3957 2.95183 -1.27369e-18)
(48.7824 3.47831 0)
(49.1075 4.05767 0)
(49.4093 4.67391 0)
(49.6886 5.32386 -5.90724e-19)
(49.9464 6.00501 1.93813e-18)
(50.162 6.69797 -1.47388e-18)
(50.3292 7.40093 0)
(50.451 8.10396 -5.10125e-19)
(50.5414 8.81477 -1.84178e-18)
(50.6613 9.58166 -2.7205e-18)
(50.6555 10.3095 -2.12574e-18)
(50.5072 10.848 1.49426e-18)
(50.3394 11.3339 -1.81943e-18)
(50.2473 11.8275 1.01528e-18)
(50.1877 12.2604 2.32701e-18)
(50.0882 12.6417 0)
(49.9837 12.876 1.49298e-18)
(49.9959 13.1579 -3.14867e-18)
(50.0536 13.4211 -2.92934e-20)
(50.1766 13.7119 1.87226e-18)
(50.2235 13.8289 1.06847e-18)
(49.995 13.8778 0)
(49.1838 13.8525 1.46297e-18)
(46.838 13.3624 -1.68484e-18)
(41.1085 11.7489 3.78988e-18)
(29.2396 8.28648 0)
(11.6505 3.37296 -4.74121e-18)
(2.14967 1.26002 1.31372e-18)
(-1.58526 0.800911 -1.47396e-18)
(-2.72873 0.641106 -1.65067e-18)
(-2.44722 0.50092 3.66636e-18)
(-1.13688 0.230165 1.44297e-21)
(39.7799 -0.0126992 -5.74464e-19)
(43.3207 -0.300035 6.43206e-19)
(43.5766 -0.27747 -7.48612e-19)
(43.7595 -0.470652 1.74389e-18)
(44.0145 -0.392065 -1.057e-18)
(44.2124 -0.385725 7.60078e-20)
(44.4055 -0.320654 -7.62917e-19)
(44.747 -0.262642 0)
(45.0851 -0.193533 -1.03348e-18)
(45.4365 -0.0869132 1.3239e-18)
(45.8264 0.100185 7.10049e-21)
(46.2706 0.304991 -1.07457e-19)
(46.7141 0.590328 1.04654e-18)
(47.1433 0.886726 -5.81771e-20)
(47.5987 1.19833 1.37871e-18)
(48.1035 1.60913 2.23537e-19)
(48.5729 2.08839 0)
(49.0387 2.59494 1.26798e-18)
(49.488 3.16353 3.21859e-18)
(49.9299 3.77618 0)
(50.3469 4.44018 0)