/*--------------------------------*- C++ -*----------------------------------*\
| =========                 |                                                 |
| \\      /  F ield         | OpenFOAM: The Open Source CFD Toolbox           |
|  \\    /   O peration     | Version:  v1912                                 |
|   \\  /    A nd           | Website:  www.openfoam.com                      |
|    \\/     M anipulation  |                                                 |
\*---------------------------------------------------------------------------*/
FoamFile
{
    version     2.0;
    format      ascii;
    class       volScalarField;
    location    "0.1";
    object      p;
}
// * * * * * * * * * * * * * * * * * * * * * * * * * * * * * * * * * * * * * //

dimensions      [0 2 -2 0 0 0 0];


internalField   nonuniform List<scalar> 
6600
(
64.2012
59.5175
57.0721
55.5598
54.7135
54.3786
54.3026
54.4996
54.9757
55.7391
56.7958
58.0912
59.689
61.6455
64.0096
66.7295
69.7984
73.1118
76.7794
80.7749
85.0513
89.6589
94.5217
99.611
104.837
110.108
115.333
120.501
125.586
130.425
134.72
138.36
141.225
143.012
143.442
142.244
139.033
133.292
124.613
112.57
96.6034
76.086
50.403
18.9097
-19.2129
-64.9285
-118.375
-180.282
-252.622
-328.374
60.9486
56.0215
54.1518
52.4619
51.2732
50.6397
50.2794
50.1683
50.3318
50.7887
51.4948
52.4651
53.6995
55.2724
57.1733
59.3842
62.0202
64.8565
67.9611
71.3758
74.9979
78.8459
82.8844
87.0698
91.3217
95.5682
99.7472
103.547
106.976
110.107
112.698
114.439
115.265
114.868
112.869
109
102.944
94.1437
82.2169
66.686
46.9742
22.4386
-7.528
-43.6045
-86.51
-137.178
-195.756
-262.352
-337.73
-414.538
56.5207
51.25
50.2121
48.3764
47.0709
46.2008
45.5588
45.171
45.1166
45.3542
45.7893
46.481
47.4689
48.7739
50.3406
52.0735
53.9828
56.3342
58.852
61.703
64.6882
67.7852
70.9906
74.2191
77.4215
80.5034
83.4051
85.9592
88.0287
89.5327
90.2278
89.9265
88.5125
85.6911
81.0892
74.3879
65.2494
53.2051
37.824
18.64
-4.93438
-33.4922
-67.6123
-107.943
-155.084
-209.838
-272.367
-341.916
-417.436
-491.035
51.2627
45.7131
45.2911
43.1577
41.8653
40.8519
40.0057
39.4199
39.1611
39.1442
39.409
39.9117
40.6089
41.5207
42.6732
44.0456
45.5038
47.2114
49.1532
51.3278
53.591
55.9452
58.2735
60.5123
62.6135
64.5513
66.2089
67.3135
67.7274
67.4747
66.3626
64.0478
60.3407
54.9882
47.6727
38.0627
25.7887
10.4557
-8.38347
-31.2042
-58.4977
-90.7769
-128.555
-172.373
-222.731
-280.318
-345.205
-415.76
-489.526
-557.516
45.2733
39.4537
39.3295
36.8616
35.5738
34.4274
33.4721
32.7642
32.2822
32.0296
32.0481
32.3202
32.7824
33.3957
34.0948
34.9416
35.9465
37.0553
38.3395
39.7644
41.2396
42.7047
44.0817
45.281
46.2068
46.8094
47.0604
46.8129
45.7591
43.7071
40.5585
36.1405
30.1713
22.3475
12.3656
-0.0838238
-15.3471
-33.8266
-55.903
-81.9738
-112.48
-147.833
-188.434
-234.696
-286.976
-345.784
-411.109
-481.125
-551.77
-612.262
38.5409
32.4784
32.4119
29.6071
28.3631
27.0842
25.9688
25.0799
24.4064
23.9546
23.6804
23.5478
23.5654
23.7383
24.0319
24.4459
24.8758
25.4069
25.9767
26.5453
27.1237
27.6
27.9333
28.0286
27.7965
27.1484
25.9564
24.075
21.3426
17.5887
12.5652
6.06297
-2.12747
-12.311
-24.7766
-39.8362
-57.8225
-79.0343
-103.81
-132.504
-165.434
-202.912
-245.23
-292.671
-345.492
-404.026
-468.285
-536.369
-602.379
-653.639
31.1441
24.9977
24.7083
21.469
20.0786
18.663
17.3783
16.2891
15.4078
14.7062
14.0891
13.578
13.1582
12.8032
12.4734
12.1486
12.0658
11.8948
11.6916
11.4153
10.9866
10.4111
9.61578
8.53298
7.04658
5.02598
2.41386
-0.922612
-5.21368
-10.7176
-17.6455
-26.1565
-36.4282
-48.7469
-63.4203
-80.7038
-100.872
-124.233
-151.026
-181.488
-215.884
-254.424
-297.283
-344.654
-396.752
-453.873
-515.606
-580.094
-640.451
-681.107
22.7663
16.6864
16.1505
12.5487
11.0099
9.34987
7.88595
6.60795
5.39238
4.2723
3.18602
2.13844
1.12476
0.148422
-0.70862
-1.60985
-2.62694
-3.56278
-4.63939
-5.88865
-7.30164
-8.98114
-10.927
-13.2071
-15.9351
-19.2313
-23.2813
-28.2466
-34.2211
-41.333
-49.8585
-60.0827
-72.1918
-86.3665
-102.822
-121.824
-143.622
-168.389
-196.341
-227.688
-262.57
-301.11
-343.4
-389.534
-439.699
-494.288
-552.921
-612.839
-666.349
-696.158
13.0819
7.21907
6.45984
2.83961
1.23852
-0.753388
-2.50749
-4.09409
-5.64429
-7.20344
-8.80658
-10.4336
-12.0871
-13.7631
-15.544
-17.2053
-19.0174
-20.9725
-23.0009
-25.2268
-27.716
-30.4816
-33.5907
-37.1116
-41.1393
-45.8185
-51.2285
-57.5111
-64.8726
-73.5093
-83.6051
-95.3083
-108.815
-124.363
-142.14
-162.28
-184.966
-210.418
-238.758
-270.086
-304.516
-342.095
-382.852
-426.843
-474.194
-525.243
-579.975
-634.884
-681.483
-702.037
2.31196
-3.17582
-4.06888
-7.4556
-9.1034
-11.4631
-13.6244
-15.7352
-17.8047
-19.872
-22.0915
-24.3873
-26.7303
-29.1748
-31.7037
-34.4717
-37.2078
-40.1851
-43.3154
-46.5987
-50.1473
-54.0156
-58.2724
-62.9639
-68.1733
-74.018
-80.6852
-88.3237
-97.0179
-106.875
-118.077
-130.877
-145.448
-161.909
-180.391
-201.066
-224.07
-249.468
-277.377
-307.902
-341.068
-376.878
-415.301
-456.32
-500.062
-546.922
-596.775
-646.535
-687.876
-702.658
-9.45807
-14.1762
-15.2213
-18.414
-20.1442
-22.7515
-25.2816
-27.927
-30.6328
-33.4744
-36.3054
-39.2839
-42.4777
-45.833
-49.3785
-53.0372
-56.9165
-60.8792
-65.1419
-69.6155
-74.2838
-79.2469
-84.6071
-90.4268
-96.7878
-103.78
-111.492
-120.081
-129.708
-140.537
-152.698
-166.249
-181.339
-198.178
-216.88
-237.492
-260.1
-284.83
-311.709
-340.741
-371.943
-405.287
-440.733
-478.204
-517.649
-559.69
-603.433
-646.638
-682.226
-696.01
-21.9783
-25.8634
-26.8718
-29.9651
-31.8771
-34.7548
-37.6516
-40.6942
-44.0116
-47.6121
-51.4168
-55.3297
-59.3964
-63.6421
-68.1039
-72.8734
-77.8897
-83.0819
-88.4252
-93.9939
-99.8261
-105.93
-112.36
-119.185
-126.488
-134.358
-142.926
-152.322
-162.67
-174.045
-186.573
-200.457
-215.777
-232.562
-250.909
-270.94
-292.718
-316.212
-341.442
-368.43
-397.132
-427.484
-459.373
-492.662
-527.461
-563.707
-599.829
-633.18
-657.139
-669.647
-34.7135
-37.8786
-38.6812
-41.7714
-43.95
-47.1893
-50.5145
-54.0902
-57.9842
-62.2067
-66.7845
-71.7037
-76.8902
-82.366
-87.9545
-93.728
-99.7553
-106.112
-112.693
-119.446
-126.426
-133.622
-141.064
-148.839
-157.008
-165.648
-174.855
-184.723
-195.368
-206.974
-219.652
-233.394
-248.315
-264.581
-282.226
-301.239
-321.635
-343.463
-366.693
-391.241
-417.03
-443.951
-471.831
-500.355
-530.165
-559.658
-586.791
-607.633
-616.784
-624.801
-46.8572
-49.5519
-50.253
-53.5251
-55.9563
-59.6097
-63.2751
-67.5372
-72.3297
-77.3588
-82.7173
-88.6037
-94.8059
-101.287
-108.21
-115.344
-122.602
-130.033
-137.744
-145.694
-153.844
-162.102
-170.532
-179.152
-187.996
-197.15
-206.723
-216.83
-227.563
-238.97
-251.203
-264.47
-278.805
-294.176
-310.639
-328.256
-347.043
-366.911
-387.789
-409.624
-432.289
-455.59
-479.197
-503.2
-526.941
-549.129
-567.92
-580.503
-584.956
-587.377
-58.1738
-60.2277
-61.3144
-64.7354
-67.5747
-71.7173
-75.7965
-80.621
-86.0931
-92.2388
-98.7415
-105.488
-112.83
-120.554
-128.534
-136.914
-145.587
-154.361
-163.262
-172.429
-181.677
-191.015
-200.391
-209.786
-219.229
-228.814
-238.596
-248.649
-259.077
-270.054
-281.704
-294.031
-307.168
-321.271
-336.344
-352.344
-369.203
-386.893
-405.359
-424.453
-444.008
-463.742
-483.523
-503.091
-521.587
-537.788
-549.714
-556.039
-563.073
-563.578
-68.5139
-69.6454
-71.4345
-74.8582
-78.1374
-82.8309
-87.8031
-93.3936
-99.4611
-106.147
-113.813
-121.932
-130.273
-139.251
-148.765
-158.475
-168.487
-178.769
-189.055
-199.424
-209.831
-220.247
-230.551
-240.699
-250.707
-260.566
-270.317
-280.089
-290.002
-300.144
-310.657
-321.791
-333.656
-346.246
-359.603
-373.74
-388.65
-404.214
-420.282
-436.749
-453.474
-470.18
-486.591
-502.277
-516.556
-528.325
-536.146
-539.53
-542.415
-544.118
-77.8749
-77.0742
-79.9102
-83.4451
-87.2837
-92.4163
-98.1443
-104.728
-111.826
-119.459
-127.784
-137.057
-146.994
-157.205
-167.915
-179.252
-190.793
-202.553
-214.46
-226.276
-237.967
-249.541
-260.841
-271.824
-282.388
-292.474
-302.158
-311.538
-320.666
-329.716
-338.972
-348.534
-358.559
-369.278
-380.779
-393.063
-405.998
-419.45
-433.357
-447.616
-462.019
-476.096
-489.602
-502.154
-513.062
-521.152
-525.525
-530.094
-530.446
-531.965
-84.6942
-83.7643
-87.1966
-90.4748
-94.8508
-100.355
-106.652
-113.995
-122.222
-131.275
-140.666
-150.718
-161.875
-173.877
-186.13
-198.824
-212.127
-225.601
-239.109
-252.577
-265.85
-278.805
-291.308
-303.252
-314.436
-324.811
-334.379
-343.192
-351.41
-359.204
-366.711
-374.298
-382.336
-391.003
-400.418
-410.606
-421.59
-433.27
-445.44
-457.956
-470.25
-481.976
-493.2
-503.254
-511.007
-515.654
-519.191
-521.231
-522.264
-522.972
-88.3494
-89.142
-92.1176
-95.7873
-100.499
-106.508
-113.202
-121.128
-130.252
-140.33
-151.132
-162.757
-175.134
-188.224
-202.266
-216.811
-231.781
-247.196
-262.731
-278.099
-293.171
-307.763
-321.771
-334.91
-346.991
-357.902
-367.532
-375.909
-383.111
-389.324
-394.964
-400.351
-405.808
-411.807
-418.71
-426.76
-435.892
-445.916
-456.744
-467.823
-478.435
-488.529
-497.674
-504.983
-509.668
-511.969
-513.94
-515.337
-516.528
-516.88
-90.2791
-91.8313
-94.9849
-99.2742
-104.316
-110.872
-117.961
-126.249
-135.866
-146.74
-158.769
-171.895
-185.803
-200.537
-216.132
-232.574
-249.607
-267.066
-284.701
-302.343
-319.652
-336.338
-352.182
-366.893
-380.263
-392.009
-401.921
-409.974
-416.298
-421.08
-424.487
-427.032
-429.451
-432.376
-436.347
-441.667
-448.599
-457.257
-467.104
-477.155
-486.783
-495.667
-502.573
-506.686
-508.354
-509.833
-510.406
-511.812
-512.98
-513.347
-91.3601
-93.4326
-95.8762
-100.497
-105.872
-112.829
-120.344
-129.715
-139.716
-150.592
-163.751
-178.104
-193.135
-209.564
-227.133
-245.525
-264.647
-284.428
-304.643
-324.855
-344.773
-363.993
-382.192
-399.042
-414.241
-427.405
-438.233
-446.519
-452.173
-455.295
-456.353
-455.962
-454.739
-453.602
-453.494
-455.307
-459.565
-466.486
-475.49
-485.437
-495.421
-503.283
-507.693
-508.869
-509.207
-508.948
-509.354
-510.33
-511.191
-511.643
-89.8655
-92.8985
-94.9538
-99.559
-105.032
-112.22
-120.045
-130.113
-140.62
-152.511
-165.851
-180.858
-197.597
-215.545
-234.789
-255.239
-276.731
-298.962
-321.875
-345.043
-368.024
-390.361
-411.63
-431.327
-449.002
-464.225
-476.506
-485.475
-491.041
-493.23
-492.1
-488.184
-482.482
-476.276
-471.072
-468.021
-467.864
-472.005
-480.589
-492.376
-503.443
-510.35
-512.884
-513.138
-511.921
-510.882
-510.079
-509.628
-509.65
-510.009
-85.2162
-89.6056
-91.3279
-96.5401
-101.343
-109.36
-117.269
-127.267
-138.178
-151.617
-165.575
-180.603
-198.353
-217.905
-238.759
-261.153
-284.989
-310.046
-335.929
-362.317
-388.804
-414.865
-439.857
-463.158
-484.155
-502.269
-517.032
-527.9
-534.251
-535.789
-532.627
-525.37
-514.827
-502.447
-490.064
-479.678
-472.818
-473.085
-480.952
-494.075
-507.662
-515.798
-518.284
-517.574
-515.885
-513.23
-510.514
-508.287
-507.093
-506.803
-77.6293
-84.1997
-84.8876
-92.0291
-95.6762
-104.329
-111.827
-122.312
-133.278
-146.888
-161.395
-177.969
-196.32
-216.433
-238.803
-263.203
-289.32
-316.991
-346.023
-375.985
-406.416
-436.742
-466.206
-494.016
-519.329
-541.476
-559.762
-573.293
-581.314
-583.53
-579.68
-569.51
-553.764
-533.811
-512.226
-492.338
-476.211
-468.09
-471.848
-487.054
-504.998
-516.915
-520.905
-519.292
-516.833
-513.029
-508.629
-504.844
-502.438
-501.313
-69.2351
-77.3831
-77.5254
-86.1929
-88.9873
-98.0088
-104.612
-115.534
-126.133
-139.487
-154.296
-171.667
-190.53
-211.49
-235.071
-261.053
-289.26
-319.663
-351.82
-385.46
-420.14
-455.192
-489.791
-522.998
-553.804
-581.165
-604.168
-621.934
-633.427
-637.715
-633.973
-621.844
-601.549
-574.449
-542.328
-508.331
-476.459
-456.2
-454.69
-468.312
-488.907
-508.95
-516.329
-516.819
-514.751
-511.172
-506.453
-501.645
-498.147
-495.936
-60.7515
-70.1699
-70.3373
-78.9769
-81.69
-90.5912
-96.4685
-107.253
-117.077
-130.384
-145.024
-162.347
-181.526
-203.232
-227.691
-254.785
-284.791
-317.512
-352.783
-390.206
-429.318
-469.469
-509.808
-549.294
-586.66
-620.623
-649.944
-673.284
-689.321
-697.172
-695.85
-684.07
-661.123
-627.124
-583.644
-533.308
-482.196
-444.221
-429.064
-438.014
-461.965
-487.655
-507.056
-517.328
-519.326
-516.211
-510.91
-504.973
-500.481
-497.606
-52.9519
-62.1212
-62.9216
-71.049
-73.9491
-82.1212
-88.2369
-97.9533
-107.439
-120.203
-133.597
-150.562
-169.794
-191.891
-216.827
-244.633
-275.93
-310.677
-348.685
-389.759
-433.364
-478.834
-525.325
-571.712
-616.648
-658.603
-695.892
-726.729
-749.654
-763.351
-766.219
-756.812
-733.412
-695.153
-642.826
-576.791
-501.911
-437.327
-407.499
-409.884
-438.856
-475.689
-506.497
-525.058
-530.859
-528.312
-521.867
-514.39
-508.858
-505.937
-47.4343
-53.8966
-56.1449
-62.6627
-66.4313
-73.1558
-79.2455
-88.3384
-96.8868
-109.251
-121.853
-137.815
-156.279
-178.094
-202.899
-231.311
-263.375
-299.416
-339.619
-383.889
-431.877
-482.781
-535.706
-589.508
-642.831
-694.015
-740.997
-781.359
-812.906
-834.06
-843.866
-839.317
-819.571
-782.429
-723.238
-641.327
-548.313
-465.39
-410.868
-392.292
-419.42
-467.707
-505.664
-528.141
-535.747
-533.612
-527.945
-521.164
-516.815
-515.164
-45.3724
-46.3643
-49.9584
-54.2745
-59.8188
-63.8232
-70.1175
-78.7342
-86.6439
-97.7309
-109.634
-124.534
-141.926
-162.978
-187.337
-215.454
-247.861
-284.665
-326.179
-372.929
-424.901
-481.122
-540.549
-602.112
-664.596
-726.187
-784.259
-835.995
-878.296
-909.657
-929.278
-932.79
-918.921
-888.298
-820.826
-730.386
-630.223
-540.83
-470.704
-442.362
-449.01
-478.221
-506.091
-523.353
-529.19
-526.863
-523.344
-519.546
-517.971
-518.293
-58.873
-40.5024
-47.8482
-45.9136
-54.297
-55.0227
-62.0989
-69.9013
-77.2269
-86.6045
-97.7514
-112.094
-128.251
-147.872
-171.236
-199.151
-231.308
-268.188
-310.475
-358.829
-413.9
-474.755
-540.4
-609.851
-681.976
-754.814
-824.068
-887.989
-944.213
-988.416
-1018.24
-1034.18
-1025.36
-995.547
-936.888
-846.44
-750.255
-661.155
-595.119
-552.945
-535.109
-532.341
-536.351
-536.872
-531.11
-523.814
-517.757
-515.347
-516.026
-517.989
65.7856
61.1335
58.707
57.2217
56.4238
56.1327
56.0937
56.3575
56.9125
57.7696
58.919
60.3298
62.046
64.1444
66.6683
69.5664
72.8453
76.3932
80.3362
84.6381
89.2718
94.2921
99.6158
105.209
111.004
116.933
122.901
128.854
134.881
140.751
146.216
151.087
155.286
158.648
160.871
161.636
160.642
157.457
151.606
142.688
130.24
113.685
92.4054
65.6079
32.6702
-7.27075
-54.3315
-108.99
-175.104
-243.296
62.5425
57.663
55.7969
54.1527
53.0115
52.4231
52.112
52.0692
52.314
52.8706
53.6868
54.7697
56.1302
57.8515
59.9191
62.308
65.1519
68.282
71.6781
75.3972
79.3851
83.6563
88.1746
92.8805
97.7101
102.609
107.507
112.099
116.441
120.619
124.463
127.547
129.673
130.803
130.59
128.677
124.78
118.474
109.276
96.7377
80.3719
59.6099
33.8105
2.16778
-35.8949
-81.2656
-134.055
-194.343
-264.516
-335.512
58.139
52.9287
51.8875
50.1199
48.8581
48.0368
47.4561
47.1455
47.1852
47.5181
48.0781
48.8865
50.0151
51.4771
53.2111
55.1769
57.3298
59.955
62.8209
65.9783
69.3631
72.9102
76.6153
80.3958
84.208
87.9773
91.6665
95.0675
97.9625
100.453
102.405
103.477
103.437
102.194
99.3715
94.5816
87.5885
77.9746
65.2329
48.9202
28.5159
3.42532
-26.8998
-63.1441
-105.901
-156.022
-213.705
-278.204
-349.547
-418.898
52.9202
47.423
47.0203
44.9679
43.7234
42.7652
41.9993
41.4833
41.3365
41.4123
41.8071
42.445
43.3105
44.4077
45.748
47.3539
49.144
51.1161
53.395
55.9382
58.646
61.4686
64.3208
67.1458
69.8907
72.5119
74.9885
77.0747
78.4843
79.2337
79.267
78.2479
75.9304
72.1706
66.6309
58.9482
48.7928
35.7828
19.4708
-0.610614
-24.9601
-54.1156
-88.5632
-128.842
-175.49
-229.267
-290.294
-357.121
-428.108
-493.575
46.9705
41.1725
41.1372
38.7474
37.5059
36.4282
35.5498
34.9335
34.5717
34.4341
34.578
35.0085
35.6465
36.4628
37.4195
38.5175
39.8128
41.2697
42.9173
44.734
46.6817
48.6595
50.6014
52.423
54.05
55.4083
56.4705
57.1395
57.1254
56.2126
54.2511
51.0878
46.5184
40.2737
32.0406
21.474
8.26902
-7.97092
-27.6723
-51.2284
-79.0907
-111.731
-149.529
-192.877
-242.223
-298.229
-360.902
-428.382
-497.811
-557.947
40.2883
34.1753
34.3577
31.5551
30.3733
29.1791
28.1464
27.362
26.814
26.4857
26.3672
26.4036
26.6132
26.9863
27.5363
28.2462
29.0082
29.8766
30.8514
31.8731
32.9358
33.9652
34.8954
35.6468
36.1379
36.2612
35.9471
35.0631
33.3905
30.758
26.9729
21.759
14.9415
6.30502
-4.46989
-17.7011
-33.725
-52.8745
-75.4922
-101.95
-132.609
-167.825
-207.912
-253.169
-303.895
-360.565
-423.292
-490.26
-556.966
-610.138
32.9277
26.6595
26.8472
23.4714
22.1903
20.8551
19.6683
18.6914
17.9333
17.3681
16.9179
16.5801
16.3908
16.2791
16.2284
16.1867
16.4359
16.6648
16.8839
17.076
17.1803
17.1725
17.0139
16.6338
15.9142
14.7208
12.9498
10.5306
7.27259
2.94922
-2.70524
-9.87426
-18.746
-29.5645
-42.6265
-58.2259
-76.6062
-98.0836
-122.976
-151.547
-184.087
-220.876
-262.119
-308.027
-358.854
-414.99
-476.463
-541.409
-603.841
-648.499
24.5882
18.5557
18.2463
14.6178
13.203
11.6216
10.2607
9.10546
8.02056
7.05317
6.16034
5.30947
4.52172
3.81486
3.25253
2.73023
2.05494
1.49343
0.876317
0.129726
-0.757958
-1.8365
-3.12833
-4.70516
-6.65786
-9.11069
-12.2372
-16.2074
-21.1685
-27.2028
-34.5061
-43.4168
-54.1351
-66.8463
-81.8054
-99.2501
-119.438
-142.606
-168.978
-198.791
-232.255
-269.542
-310.808
-356.221
-406.006
-460.549
-519.615
-581.008
-638.054
-673.135
14.983
9.18348
8.58417
4.98375
3.48699
1.57865
-0.055888
-1.51112
-2.9257
-4.31675
-5.73349
-7.13078
-8.53896
-9.93772
-11.3961
-12.7343
-14.0936
-15.6278
-17.2127
-18.9226
-20.8432
-22.9885
-25.4311
-28.2248
-31.4579
-35.2809
-39.8107
-45.1444
-51.4429
-58.9558
-67.8646
-78.3261
-90.5533
-104.747
-121.125
-139.896
-161.223
-185.321
-212.392
-242.573
-276.017
-312.859
-353.17
-397.043
-444.727
-496.709
-552.609
-609.353
-659.733
-684.951
4.35956
-1.12954
-1.90812
-5.2503
-6.80372
-9.06842
-11.1015
-13.065
-14.9845
-16.8663
-18.8846
-20.956
-23.0421
-25.2136
-27.3964
-29.8043
-32.1799
-34.6495
-37.2739
-40.0393
-42.9853
-46.2113
-49.7709
-53.7242
-58.1415
-63.1187
-68.8277
-75.4734
-83.1902
-92.0208
-102.12
-113.76
-127.111
-142.345
-159.632
-179.103
-200.939
-225.29
-252.271
-282.016
-314.62
-350.138
-388.617
-430.128
-474.807
-523.021
-574.849
-626.776
-670.803
-688.41
-7.32186
-12.0599
-13.036
-16.1646
-17.7968
-20.3003
-22.7006
-25.2075
-27.7411
-30.4011
-33.0314
-35.7602
-38.6779
-41.7037
-44.9377
-48.1925
-51.654
-55.2021
-58.9356
-62.8004
-66.8621
-71.164
-75.8097
-80.8759
-86.4324
-92.5871
-99.4239
-107.041
-115.627
-125.396
-136.487
-148.997
-163.062
-178.82
-196.443
-216.076
-237.792
-261.708
-287.936
-316.525
-347.537
-381.016
-416.948
-455.297
-496.14
-540.026
-586.608
-633.129
-672.049
-686.193
-19.9098
-23.7083
-24.6727
-27.6851
-29.4988
-32.2702
-35.0383
-37.94
-41.0904
-44.4897
-48.0681
-51.7272
-55.5179
-59.4374
-63.5188
-67.9007
-72.4532
-77.1595
-81.9952
-86.9946
-92.1736
-97.5906
-103.29
-109.345
-115.832
-122.84
-130.519
-139.024
-148.47
-158.902
-170.455
-183.325
-197.623
-213.472
-230.969
-250.177
-271.215
-294.148
-319.002
-345.834
-374.668
-405.465
-438.188
-472.787
-509.154
-547.888
-587.808
-626.58
-657.924
-671.833
-32.7003
-35.71
-36.4716
-39.4708
-41.5501
-44.7019
-47.8928
-51.3098
-55.0378
-59.0623
-63.3962
-68.0661
-72.9431
-78.079
-83.3192
-88.649
-94.2415
-100.09
-106.077
-112.242
-118.587
-125.091
-131.801
-138.802
-146.168
-153.987
-162.338
-171.295
-181.013
-191.674
-203.407
-216.295
-230.428
-245.871
-262.727
-281.094
-300.981
-322.419
-345.446
-370.038
-396.168
-423.811
-452.851
-483.064
-514.685
-547.209
-578.998
-606.608
-624.743
-636.699
-44.8771
-47.3947
-48.0675
-51.253
-53.583
-57.1382
-60.663
-64.7852
-69.3937
-74.2195
-79.3564
-84.957
-90.8765
-96.9872
-103.526
-110.272
-116.982
-123.892
-131.052
-138.367
-145.836
-153.388
-161.067
-168.895
-176.909
-185.205
-193.931
-203.213
-213.143
-223.774
-235.223
-247.635
-261.121
-275.783
-291.662
-308.742
-327.084
-346.7
-367.527
-389.537
-412.686
-436.835
-461.778
-487.447
-513.67
-539.253
-562.46
-579.509
-586.064
-592.683
-56.1467
-58.1189
-59.1786
-62.5074
-65.2517
-69.2876
-73.2267
-77.9048
-83.2043
-89.1321
-95.4002
-101.865
-108.885
-116.303
-123.832
-131.776
-140.014
-148.172
-156.493
-165.025
-173.582
-182.184
-190.791
-199.405
-208.05
-216.826
-225.782
-234.993
-244.576
-254.688
-265.519
-277.192
-289.759
-303.249
-317.735
-333.289
-349.853
-367.374
-385.834
-405.133
-425.125
-445.661
-466.542
-487.9
-508.612
-527.46
-542.964
-553.158
-559.122
-561.687
-66.5554
-67.601
-69.342
-72.664
-75.8746
-80.4604
-85.2992
-90.7457
-96.6301
-103.122
-110.548
-118.422
-126.424
-135.037
-144.183
-153.364
-162.917
-172.654
-182.294
-191.993
-201.711
-211.36
-220.865
-230.191
-239.341
-248.32
-257.221
-266.194
-275.392
-284.892
-294.779
-305.214
-316.377
-328.418
-341.348
-355.098
-369.692
-385.09
-401.145
-417.748
-434.803
-452.098
-469.433
-486.414
-502.449
-516.384
-526.571
-531.776
-537.647
-539.325
-76.1662
-75.0578
-77.8651
-81.3318
-85.1158
-90.1273
-95.739
-102.184
-109.112
-116.56
-124.643
-133.611
-143.27
-153.113
-163.418
-174.296
-185.275
-196.533
-207.792
-218.901
-229.85
-240.638
-251.112
-261.239
-270.941
-280.193
-289.06
-297.643
-305.984
-314.264
-322.808
-331.835
-341.445
-351.715
-362.76
-374.662
-387.303
-400.555
-414.354
-428.601
-443.112
-457.525
-471.715
-485.409
-497.818
-507.621
-513.712
-517.979
-520.26
-522.395
-82.9196
-81.8941
-85.2967
-88.4694
-92.778
-98.1875
-104.389
-111.593
-119.656
-128.51
-137.666
-147.484
-158.335
-169.974
-181.819
-194.069
-206.804
-219.655
-232.579
-245.335
-257.83
-269.946
-281.573
-292.605
-302.872
-312.316
-320.955
-328.92
-336.434
-343.645
-350.669
-357.77
-365.291
-373.522
-382.584
-392.431
-403.074
-414.439
-426.344
-438.643
-451.027
-463.063
-474.659
-485.503
-494.864
-501.607
-505.104
-508.248
-509.594
-511.102
-86.6682
-87.3784
-90.3157
-93.8936
-98.5523
-104.46
-111.063
-118.888
-127.872
-137.756
-148.348
-159.733
-171.817
-184.539
-198.156
-212.29
-226.77
-241.531
-256.366
-271.008
-285.292
-299.011
-312.079
-324.231
-335.33
-345.262
-353.971
-361.502
-367.948
-373.485
-378.512
-383.463
-388.675
-394.462
-401.1
-408.823
-417.573
-427.177
-437.549
-448.494
-459.156
-469.075
-478.379
-486.59
-492.846
-496.605
-500.051
-501.362
-502.582
-503.337
-88.737
-90.1768
-93.3263
-97.5104
-102.523
-108.975
-116.012
-124.191
-133.693
-144.401
-156.259
-169.134
-182.722
-197.162
-212.376
-228.293
-244.807
-261.708
-278.634
-295.493
-311.944
-327.723
-342.576
-356.244
-368.544
-379.203
-388.046
-395.103
-400.589
-404.714
-407.712
-410.031
-412.267
-415.038
-418.904
-424.084
-430.686
-438.737
-448.206
-458.065
-467.114
-475.728
-483.201
-488.358
-491.058
-493.348
-495.025
-496.462
-497.652
-498.099
-89.9456
-91.8985
-94.3458
-98.8789
-104.273
-111.077
-118.557
-127.872
-137.724
-148.502
-161.482
-175.617
-190.368
-206.477
-223.72
-241.674
-260.219
-279.386
-298.921
-318.334
-337.346
-355.583
-372.714
-388.444
-402.465
-414.414
-424.029
-431.206
-435.989
-438.484
-439.048
-438.364
-437.13
-436.188
-436.287
-438.213
-442.424
-449.072
-457.472
-466.065
-474.969
-483.088
-488.37
-490.536
-490.814
-491.133
-492.081
-493.497
-494.714
-495.17
-88.5935
-91.4906
-93.5425
-98.0652
-103.559
-110.59
-118.352
-128.463
-138.855
-150.699
-163.87
-178.619
-195.174
-212.852
-231.686
-251.73
-272.717
-294.347
-316.545
-338.906
-360.958
-382.239
-402.351
-420.818
-437.19
-451.102
-462.056
-469.759
-474.131
-475.394
-473.788
-469.856
-464.461
-458.718
-454.049
-451.596
-452.108
-456.21
-463.133
-472.422
-482.479
-489.946
-493.507
-493.738
-492.962
-491.896
-491.927
-492.6
-493.326
-493.841
-84.0071
-88.3496
-90.1433
-95.204
-100.009
-107.945
-115.797
-125.71
-136.576
-150.1
-163.841
-178.712
-196.251
-215.543
-236.102
-258.068
-281.43
-305.887
-331.047
-356.615
-382.151
-407.109
-430.868
-452.817
-472.369
-489.002
-502.234
-511.555
-516.523
-517.07
-513.331
-506.002
-495.858
-484.374
-473.191
-464.213
-458.966
-459.091
-465.305
-476.104
-487.193
-495.114
-498.479
-498.791
-496.9
-495.001
-493.32
-492.148
-491.678
-491.91
-76.4987
-83.1215
-83.7992
-90.8068
-94.4892
-103.067
-110.54
-121.01
-131.923
-145.367
-159.998
-176.411
-194.563
-214.421
-236.506
-260.6
-286.277
-313.366
-341.692
-370.805
-400.254
-429.434
-457.586
-483.928
-507.658
-528.111
-544.724
-556.557
-562.926
-563.569
-558.763
-548.34
-533.228
-514.828
-495.295
-477.622
-463.895
-457.556
-460.982
-472.802
-486.896
-496.704
-501.959
-502.322
-499.935
-496.515
-493.05
-490.158
-488.571
-488.2
-68.1985
-76.4213
-76.4965
-85.0896
-87.9791
-96.8493
-103.567
-114.347
-124.943
-138.247
-153.153
-170.34
-189.037
-209.846
-233.218
-258.892
-286.709
-316.576
-348.069
-380.888
-414.56
-448.42
-481.625
-513.261
-542.342
-567.828
-588.891
-604.641
-614.125
-616.559
-611.37
-598.642
-578.87
-553.232
-524.061
-494.156
-467.235
-449.433
-447.798
-459.987
-478.426
-491.467
-498.733
-501.17
-499.002
-494.773
-490.339
-486.323
-483.72
-482.351
-59.7671
-69.2066
-69.4454
-78.0389
-80.7813
-89.5793
-95.6187
-106.168
-116.161
-129.377
-143.977
-161.21
-180.338
-201.934
-226.215
-253.032
-282.715
-314.995
-349.646
-386.272
-424.375
-463.3
-502.171
-539.956
-575.407
-607.293
-634.401
-655.617
-669.496
-674.953
-671.372
-658.223
-635.201
-602.78
-562.735
-517.778
-473.012
-439.847
-428.011
-436.02
-457.31
-478.624
-490.099
-496.403
-497.913
-495.552
-490.851
-485.796
-482.033
-479.59
-52.0058
-61.1465
-62.0808
-70.2413
-73.0482
-81.2556
-87.4376
-97.0507
-106.688
-119.243
-132.757
-149.712
-168.918
-190.936
-215.652
-243.31
-274.351
-308.716
-346.18
-386.482
-429.096
-473.346
-518.333
-562.908
-605.737
-645.352
-680.139
-708.501
-728.889
-739.639
-739.546
-727.712
-703.61
-666.473
-616.855
-557.068
-492.182
-435.657
-405.404
-406.222
-428.873
-461.087
-486.781
-501.112
-506.09
-503.988
-498.57
-492.172
-486.905
-483.437
-46.5434
-53.0023
-55.2645
-61.9708
-65.5688
-72.4261
-78.4723
-87.5924
-96.2177
-108.464
-121.216
-137.122
-155.632
-177.332
-202.073
-230.382
-262.228
-297.952
-337.703
-381.289
-428.316
-478.03
-529.451
-581.397
-632.461
-681.004
-725.077
-762.528
-791.371
-809.416
-815.255
-807.276
-784.91
-747.831
-691.267
-615.077
-527.093
-453.766
-405.401
-391.337
-406.206
-443.631
-481.828
-503.982
-514.265
-514.499
-508.124
-501.215
-495.961
-493.383
-44.5658
-45.5055
-49.0822
-53.6472
-59.0231
-63.2405
-69.4035
-78.1551
-86.0771
-97.1612
-109.125
-123.948
-141.408
-162.46
-186.76
-214.882
-247.138
-283.612
-324.765
-370.926
-422.026
-477.116
-535.063
-594.733
-654.821
-713.52
-768.275
-816.505
-855.801
-884.128
-899.322
-898.045
-879.63
-846.39
-783.409
-695.873
-595.729
-506.025
-440.949
-414.414
-422.558
-448.001
-479.304
-500.955
-511.518
-512.383
-508.282
-503.518
-500.213
-499.206
-57.9063
-39.7483
-47.0654
-45.4493
-53.4025
-54.6259
-61.5088
-69.3767
-76.7709
-86.2695
-97.3984
-111.655
-127.919
-147.505
-170.901
-198.796
-230.858
-267.511
-309.485
-357.301
-411.607
-471.419
-535.62
-603.186
-672.762
-742.471
-808.308
-868.091
-920.468
-961.288
-988.206
-998.112
-984.715
-951.234
-895.211
-804.663
-707.557
-607.501
-535.269
-495.368
-481.588
-488.017
-499.725
-507.954
-510.545
-508.01
-503.748
-500.316
-499.728
-500.646
-48.5426
-31.9118
-40.1409
-37.702
-47.6162
-48.5642
-54.9639
-61.2145
-68.6147
-76.8067
-87.4046
-101.21
-116.94
-135.605
-158.061
-184.673
-216.245
-254.029
-297.571
-347.296
-404.337
-469.309
-541.791
-619.779
-701.228
-783.548
-863.841
-938.34
-1004.01
-1058.9
-1099.06
-1125.49
-1125.71
-1085.46
-1011.97
-923.684
-826.094
-742.627
-676.634
-625.811
-589.557
-565.635
-547.668
-532.845
-518.909
-506.186
-498.382
-496.473
-498.345
-500.218
-39.5051
-33.0114
-36.0567
-38.7323
-44.256
-47.686
-51.3792
-56.5773
-64.2653
-73.062
-83.5631
-96.5122
-112.217
-131.751
-155.586
-184.313
-218.963
-260.146
-307.892
-363.641
-428.549
-503.045
-586.167
-675.91
-771.164
-868.676
-963.838
-1051.24
-1127.57
-1189.67
-1232.88
-1248.77
-1226.8
-1175.09
-1103.43
-1019.07
-932.855
-854.236
-788.63
-733.398
-686.293
-644.444
-607.194
-572.799
-541.525
-516.87
-501.694
-497.606
-500.318
-502.514
-30.6337
-31.9804
-34.34
-37.6629
-41.6
-45.3785
-49.0197
-54.2927
-62.3808
-72.1555
-82.9199
-96.0623
-112.865
-134.737
-162.187
-195.649
-234.752
-281.183
-337.14
-403.652
-480.12
-566.131
-662.459
-768.423
-880.541
-993.277
-1098.96
-1194.66
-1277.83
-1340.5
-1370.41
-1364.48
-1332.16
-1276.46
-1206.15
-1125.58
-1046.79
-971.056
-900.018
-834.323
-773.747
-717.856
-665.973
-618.492
-575.686
-540.053
-515.548
-504.374
-505.774
-508.889
-25.8247
-28.5415
-30.9954
-34.0194
-37.4935
-41.4113
-45.775
-51.3331
-59.4652
-69.753
-81.6631
-96.0801
-114.868
-139.28
-170.126
-207.865
-253.362
-308.471
-374.386
-451.289
-540.753
-644.371
-761.276
-887.705
-1016.42
-1140.45
-1256.35
-1361.41
-1446.32
-1496.78
-1510.24
-1494.19
-1453.33
-1393.73
-1320.75
-1242.07
-1159.75
-1077.93
-997.924
-921.783
-849.519
-781.999
-719.606
-662.873
-612.853
-570.588
-538.436
-519.007
-512.796
-519.022
-21.7007
-24.0755
-26.118
-28.7045
-31.9147
-35.5812
-40.1903
-45.8473
-53.7918
-64.1382
-77.1985
-93.129
-113.671
-140.572
-175.154
-218.176
-271.028
-334.448
-409.932
-500.609
-609.502
-736.929
-877.299
-1022.91
-1166.86
-1305.25
-1434.35
-1542.85
-1615.72
-1651.15
-1653.63
-1627.51
-1578.29
-1511.79
-1433.92
-1348.46
-1258.4
-1167.64
-1078.19
-991.831
-909.943
-833.383
-763.176
-700.376
-645.75
-600.041
-563.758
-538.348
-527.163
-536.716
-16.4103
-18.4863
-20.3193
-22.0366
-24.5468
-28.0083
-31.8871
-36.6897
-44.4577
-55.1014
-68.4915
-85.5121
-107.586
-136.882
-175.315
-224.087
-283.748
-355.993
-444.603
-554.812
-688.576
-841.449
-1004.91
-1170.13
-1333.02
-1487.92
-1621.61
-1717.01
-1775.38
-1797.28
-1787.04
-1749.28
-1690.86
-1615.6
-1528.18
-1433.02
-1334.02
-1234.08
-1135.68
-1040.88
-951.116
-867.89
-792.319
-725.443
-668.194
-620.826
-583.532
-557.121
-545.204
-547.265
-10.6864
-11.8734
-12.9119
-13.799
-14.8529
-17.1735
-20.518
-25.236
-32.205
-42.1602
-55.029
-71.8717
-95.2271
-127.065
-169.365
-222.929
-290.612
-375.979
-483.178
-616.508
-776.872
-955.985
-1142.92
-1331.26
-1512.3
-1670.42
-1790.37
-1872.18
-1915.44
-1923.19
-1899.09
-1849.9
-1778.97
-1692.46
-1594.57
-1489.83
-1381.79
-1273.63
-1167.6
-1065.78
-970.093
-881.897