/*--------------------------------*- C++ -*----------------------------------*\
| =========                 |                                                 |
| \\      /  F ield         | OpenFOAM: The Open Source CFD Toolbox           |
|  \\    /   O peration     | Version:  v1912                                 |
|   \\  /    A nd           | Website:  www.openfoam.com                      |
|    \\/     M anipulation  |                                                 |
\*---------------------------------------------------------------------------*/
FoamFile
{
    version     2.0;
    format      ascii;
    class       surfaceScalarField;
    location    "0.1";
    object      phi;
}
// * * * * * * * * * * * * * * * * * * * * * * * * * * * * * * * * * * * * * //

dimensions      [0 3 -1 0 0 0 0];
oriented        oriented;


internalField   nonuniform List<scalar> 
13060
(
0.00560842
0.988594
-0.994203
0.00730256
0.945946
-0.94764
0.00827142
0.900408
-0.901376
0.00914519
0.85699
-0.857864
0.00970364
0.816348
-0.816907
0.010112
0.778407
-0.778816
0.0103702
0.741943
-0.742201
0.010773
0.707052
-0.707455
0.0111478
0.673714
-0.674089
0.0115024
0.641931
-0.642286
0.0117726
0.611457
-0.611727
0.0119736
0.582378
-0.582579
0.0120988
0.55462
-0.554745
0.0121452
0.528183
-0.528229
0.0120431
0.50288
-0.502778
0.0117621
0.478692
-0.478411
0.0116115
0.455437
-0.455287
0.0114379
0.433219
-0.433046
0.0112645
0.411874
-0.4117
0.0112098
0.391498
-0.391443
0.0111183
0.372204
-0.372112
0.0109737
0.353743
-0.353598
0.0108036
0.336132
-0.335962
0.0106015
0.319381
-0.319179
0.01039
0.303423
-0.303211
0.0101853
0.288185
-0.287981
0.0100672
0.273589
-0.273471
0.00990938
0.259755
-0.259597
0.00962166
0.246797
-0.24651
0.00914954
0.23451
-0.234038
0.00861151
0.222761
-0.222223
0.00807308
0.211622
-0.211084
0.0075086
0.201189
-0.200625
0.0068738
0.191271
-0.190636
0.00620308
0.18185
-0.18118
0.00552001
0.173008
-0.172325
0.00480098
0.164724
-0.164005
0.00405553
0.156924
-0.156178
0.00331031
0.14962
-0.148875
0.00253688
0.142782
-0.142008
0.00175337
0.136324
-0.135541
0.00100488
0.130272
-0.129523
0.00029422
0.124609
-0.123898
-0.000400018
0.119345
-0.11865
-0.00109244
0.114371
-0.113679
-0.00167182
0.109808
-0.109229
-0.00233708
0.105149
-0.104484
-0.00272714
0.101485
-0.101095
-0.00218702
0.0927941
-0.0933343
0.0633779
-0.0655649
0.00609582
0.982499
0.00701671
0.945025
0.00742051
0.900004
0.00734654
0.857064
0.00714983
0.816545
0.00703578
0.778521
0.00700336
0.741975
0.00684685
0.707209
0.00659708
0.673964
0.0065309
0.641997
0.00633174
0.611657
0.00615188
0.582558
0.00601576
0.554756
0.0060342
0.528164
0.00624962
0.502665
0.00660159
0.47834
0.00683496
0.455204
0.00699257
0.433062
0.00700926
0.411857
0.00686691
0.39164
0.00671223
0.372358
0.00651616
0.353939
0.00628011
0.336368
0.0060064
0.319655
0.00568744
0.303742
0.00525613
0.288617
0.00467209
0.274173
0.00399287
0.260434
0.00345295
0.247337
0.00309923
0.234864
0.00272347
0.223137
0.00224578
0.2121
0.00177562
0.20166
0.00129625
0.19175
0.000796002
0.18235
0.000270013
0.173534
-0.000267213
0.165261
-0.000831128
0.157487
-0.00140373
0.150193
-0.00194974
0.143328
-0.00246305
0.136837
-0.00295402
0.130762
-0.00340716
0.125062
-0.0037896
0.119727
-0.004103
0.114685
-0.00432354
0.110029
-0.00448828
0.105314
-0.00406787
0.101064
-0.00285041
0.0915767
0.0605275
0.00522927
0.977269
0.00592809
0.944326
0.00588928
0.900043
0.00533249
0.857621
0.00484111
0.817036
0.00446422
0.778898
0.00417228
0.742267
0.00383022
0.707551
0.00374395
0.67405
0.00344527
0.642296
0.00320826
0.611894
0.00301634
0.58275
0.00272287
0.555049
0.00232592
0.528561
0.00171123
0.50328
0.00111864
0.478932
0.000643861
0.455679
0.000314327
0.433391
-5.89536e-06
0.412177
-0.00024349
0.391878
-0.000517873
0.372633
-0.00081906
0.35424
-0.00112304
0.336672
-0.00141868
0.319951
-0.00169009
0.304013
-0.00187497
0.288802
-0.00190975
0.274208
-0.00195843
0.260482
-0.0022682
0.247647
-0.00276542
0.235361
-0.00320968
0.223581
-0.00358159
0.212472
-0.00397263
0.202051
-0.0043779
0.192155
-0.00478026
0.182753
-0.00515988
0.173913
-0.00553987
0.165641
-0.00589592
0.157843
-0.00620824
0.150505
-0.00649991
0.143619
-0.00675137
0.137089
-0.00692489
0.130936
-0.00701813
0.125155
-0.00700754
0.119716
-0.00687321
0.114551
-0.00661442
0.10977
-0.00631822
0.105018
-0.00536512
0.100111
-0.00351402
0.0897256
0.0570135
0.0044618
0.972808
0.00451651
0.944272
0.00397236
0.900587
0.00303829
0.858555
0.00218888
0.817886
0.00132117
0.779766
0.000504443
0.743084
-0.000197106
0.708252
-0.000928876
0.674782
-0.00161237
0.64298
-0.0022569
0.612538
-0.00288939
0.583382
-0.00335523
0.555515
-0.00355216
0.528758
-0.00352753
0.503255
-0.00358503
0.47899
-0.00373163
0.455825
-0.00389834
0.433558
-0.00416289
0.412442
-0.00449508
0.39221
-0.00481843
0.372956
-0.00516099
0.354582
-0.00552846
0.33704
-0.00589758
0.32032
-0.00629641
0.304412
-0.00681931
0.289324
-0.0075061
0.274894
-0.00817716
0.261154
-0.00857647
0.248046
-0.00879818
0.235583
-0.00907061
0.223853
-0.00941697
0.212818
-0.009735
0.202369
-0.0100094
0.19243
-0.0102633
0.183007
-0.0105089
0.174159
-0.0106984
0.165831
-0.0108339
0.157979
-0.0109396
0.150611
-0.0109603
0.14364
-0.0108945
0.137023
-0.0107583
0.1308
-0.0105236
0.12492
-0.0101697
0.119363
-0.00969753
0.114078
-0.00904622
0.109119
-0.008265
0.104237
-0.00683748
0.0986836
-0.00428045
0.0871686
0.052733
0.00365532
0.969152
0.00270896
0.945218
0.00154673
0.901749
0.000530444
0.859571
-0.000783096
0.819199
-0.00184729
0.78083
-0.00273506
0.743972
-0.00352394
0.709041
-0.00416274
0.675421
-0.00490775
0.643725
-0.00545929
0.61309
-0.00594844
0.583871
-0.00660942
0.556176
-0.00746147
0.52961
-0.00847697
0.504271
-0.00933181
0.479845
-0.0100273
0.456521
-0.0107375
0.434268
-0.0113243
0.413029
-0.0118382
0.392724
-0.0123065
0.373424
-0.0127393
0.355015
-0.0131471
0.337447
-0.0135265
0.320699
-0.0138435
0.304729
-0.0139933
0.289474
-0.0139567
0.274858
-0.0139528
0.26115
-0.0142479
0.248342
-0.0147071
0.236042
-0.0150366
0.224183
-0.0152263
0.213008
-0.0154011
0.202543
-0.0155621
0.192591
-0.0156742
0.183119
-0.0157152
0.1742
-0.015718
0.165833
-0.0156522
0.157913
-0.0154828
0.150442
-0.0152441
0.143401
-0.0149192
0.136698
-0.0144653
0.130346
-0.0138887
0.124344
-0.0131872
0.118661
-0.0123402
0.113231
-0.0112926
0.108071
-0.0101578
0.103102
-0.00831825
0.0968441
-0.0050325
0.0838828
0.0477005
0.00277822
0.966374
0.000745062
0.947251
-0.00127281
0.903767
-0.00244009
0.860738
-0.00389028
0.82065
-0.00516621
0.782106
-0.00655262
0.745358
-0.00780596
0.710295
-0.00902916
0.676644
-0.0101946
0.64489
-0.0111561
0.614051
-0.0121406
0.584856
-0.0127756
0.556811
-0.0131716
0.530006
-0.0134357
0.504535
-0.0138449
0.480254
-0.0143047
0.456981
-0.0147648
0.434728
-0.0152949
0.413559
-0.0158488
0.393278
-0.0163678
0.373943
-0.0168711
0.355519
-0.0173547
0.337931
-0.0178184
0.321163
-0.0183028
0.305213
-0.0189274
0.290099
-0.0196948
0.275625
-0.0203241
0.261779
-0.0205633
0.248581
-0.020592
0.236071
-0.0207134
0.224304
-0.0208887
0.213183
-0.0209737
0.202629
-0.0209696
0.192586
-0.0209092
0.183059
-0.0207967
0.174087
-0.0205765
0.165613
-0.0202697
0.157606
-0.0198923
0.150064
-0.0193869
0.142896
-0.0187572
0.136069
-0.0180309
0.12962
-0.0171795
0.123492
-0.0161778
0.117659
-0.0150733
0.112127
-0.0138849
0.106883
-0.0123156
0.101533
-0.00993126
0.0944597
-0.00583194
0.0797835
0.0418686
0.00168672
0.964687
-0.000393776
0.949332
-0.0030823
0.906455
-0.0050814
0.862737
-0.00664639
0.822215
-0.00803945
0.783499
-0.00948904
0.746808
-0.0108324
0.711638
-0.0121278
0.67794
-0.0131733
0.645936
-0.0140888
0.614966
-0.0150452
0.585812
-0.0161874
0.557953
-0.0175374
0.531356
-0.0187767
0.505774
-0.0199308
0.481408
-0.0209821
0.458032
-0.0219382
0.435684
-0.0227442
0.414365
-0.0234881
0.394022
-0.0241458
0.374601
-0.0247204
0.356093
-0.0252345
0.338445
-0.0256731
0.321602
-0.0259866
0.305527
-0.0260523
0.290165
-0.0259051
0.275478
-0.0258413
0.261715
-0.02608
0.248819
-0.0264083
0.236399
-0.0265355
0.224432
-0.0264966
0.213144
-0.026405
0.202537
-0.0262555
0.192437
-0.0260138
0.182817
-0.0256662
0.17374
-0.0252554
0.165202
-0.0247436
0.157095
-0.0240931
0.149414
-0.0233429
0.142146
-0.022489
0.135215
-0.0214894
0.12862
-0.0203583
0.122361
-0.0191121
0.116413
-0.0177226
0.110737
-0.0163188
0.105479
-0.0143273
0.0995411
-0.0114795
0.091612
-0.00657115
0.0748751
0.0352974
0.00102579
0.963662
-0.00162292
0.95198
-0.00446523
0.909298
-0.00716992
0.865442
-0.00962436
0.824669
-0.0115767
0.785451
-0.0133523
0.748583
-0.0150141
0.7133
-0.016738
0.679664
-0.0182497
0.647447
-0.019776
0.616493
-0.021044
0.58708
-0.0219172
0.558826
-0.0225928
0.532032
-0.0233776
0.506559
-0.024095
0.482125
-0.0247934
0.45873
-0.0255204
0.436411
-0.0262645
0.415109
-0.0269933
0.39475
-0.0277011
0.375309
-0.0283593
0.356751
-0.0289618
0.339048
-0.0295131
0.322153
-0.0300656
0.30608
-0.0307494
0.290848
-0.0315408
0.276269
-0.0320917
0.262266
-0.0321689
0.248897
-0.0319904
0.236221
-0.031888
0.224329
-0.031821
0.213077
-0.031628
0.202344
-0.0313003
0.192109
-0.0308855
0.182402
-0.0303898
0.173244
-0.0297486
0.164561
-0.0289965
0.156343
-0.028163
0.14858
-0.0271908
0.141174
-0.0260805
0.134104
-0.0248793
0.127419
-0.0235764
0.121058
-0.022149
0.114986
-0.0206295
0.109218
-0.0189253
0.103775
-0.0166322
0.097248
-0.0131836
0.0881634
-0.00731472
0.0690062
0.0279827
0.00043768
0.963224
-0.00321323
0.955631
-0.0063256
0.91241
-0.009132
0.868248
-0.0117879
0.827325
-0.0141519
0.787815
-0.0159936
0.750425
-0.0175564
0.714862
-0.0191803
0.681287
-0.0206115
0.648878
-0.0221741
0.618055
-0.0236168
0.588523
-0.0253728
0.560582
-0.0271767
0.533836
-0.0286522
0.508034
-0.0300932
0.483566
-0.0314808
0.460118
-0.0326921
0.437623
-0.0337657
0.416182
-0.0347161
0.395701
-0.0355399
0.376133
-0.0362567
0.357468
-0.0368791
0.33967
-0.037386
0.32266
-0.0377081
0.306402
-0.0377039
0.290844
-0.0374287
0.275994
-0.0372356
0.262073
-0.0373427
0.249004
-0.0375138
0.236392
-0.03741
0.224225
-0.0370824
0.21275
-0.0366827
0.201944
-0.0362075
0.191634
-0.035609
0.181804
-0.0348791
0.172514
-0.0340778
0.16376
-0.0331662
0.155431
-0.0320975
0.147512
-0.0309214
0.139997
-0.0296571
0.13284
-0.0282606
0.126022
-0.0267347
0.119532
-0.0251284
0.11338
-0.023556
0.107645
-0.0215036
0.101722
-0.0188518
0.0945962
-0.0147035
0.0840151
-0.0080193
0.062322
0.0199634
-0.000282724
0.963507
-0.00495698
0.960305
-0.00825443
0.915707
-0.0111241
0.871118
-0.0142011
0.830402
-0.0169707
0.790585
-0.0193776
0.752832
-0.0216631
0.717148
-0.0236468
0.683271
-0.0255011
0.650733
-0.0273122
0.619866
-0.0289225
0.590133
-0.030095
0.561755
-0.0311496
0.53489
-0.0324367
0.509321
-0.0335697
0.484699
-0.0345234
0.461072
-0.0355171
0.438616
-0.0364771
0.417142
-0.0373985
0.396622
-0.0382952
0.377029
-0.0391057
0.358279
-0.0398208
0.340385
-0.0404505
0.32329
-0.04106
0.307011
-0.0417724
0.291557
-0.0425551
0.276777
-0.0430421
0.26256
-0.0429803
0.248942
-0.0426014
0.236013
-0.0422772
0.223901
-0.0419701
0.212442
-0.0414909
0.201465
-0.0408444
0.190988
-0.040104
0.181063
-0.0392772
0.171687
-0.0382823
0.162765
-0.0371605
0.154309
-0.0359657
0.146317
-0.0346479
0.13868
-0.0331926
0.131385
-0.0316621
0.124492
-0.0300844
0.117955
-0.0284283
0.111724
-0.0266498
0.105867
-0.0242333
0.0993057
-0.0210484
0.0914112
-0.0158449
0.0788116
-0.00774339
0.0542205
0.01222
-0.000929432
0.964436
-0.00571585
0.965092
-0.0092879
0.919279
-0.0126656
0.874496
-0.0151945
0.832931
-0.0178002
0.793191
-0.0205339
0.755566
-0.0230037
0.719618
-0.0251183
0.685386
-0.0271002
0.652715
-0.0289749
0.621741
-0.0309232
0.592082
-0.0331398
0.563972
-0.0352335
0.536984
-0.0370235
0.511111
-0.0387605
0.486436
-0.0405495
0.462861
-0.0421334
0.4402
-0.0435773
0.418586
-0.0447964
0.397841
-0.0458173
0.37805
-0.0467076
0.359169
-0.047468
0.341145
-0.0480725
0.323894
-0.0484475
0.307386
-0.0484476
0.291557
-0.0480999
0.276429
-0.0477609
0.262221
-0.0477012
0.248882
-0.0477146
0.236026
-0.0474152
0.223602
-0.0468355
0.211863
-0.0461674
0.200797
-0.045418
0.190238
-0.0445286
0.180174
-0.043489
0.170648
-0.042386
0.161662
-0.0411897
0.153113
-0.0398325
0.14496
-0.0383635
0.137211
-0.036831
0.129852
-0.0351882
0.122849
-0.0334146
0.116181
-0.0317328
0.110042
-0.0296422
0.103776
-0.0269933
0.0966568
-0.0229726
0.0873905
-0.0160947
0.0719337
-0.00591686
0.0440427
0.00630318
-0.00116016
0.965596
-0.00554435
0.969476
-0.0097017
0.923437
-0.0139213
0.878715
-0.0171011
0.836111
-0.0200111
0.796101
-0.0228832
0.758438
-0.0255996
0.722334
-0.0281585
0.687945
-0.0306382
0.655194
-0.0327625
0.623866
-0.0347383
0.594057
-0.0363475
0.565581
-0.0379663
0.538603
-0.0396801
0.512825
-0.0412161
0.487972
-0.0425428
0.464187
-0.0438517
0.441509
-0.0450793
0.419814
-0.0463184
0.39908
-0.047491
0.379223
-0.0485362
0.360214
-0.0494265
0.342036
-0.0501833
0.324651
-0.0508702
0.308073
-0.0515968
0.292283
-0.0523783
0.277211
-0.052881
0.262723
-0.052787
0.248788
-0.0522796
0.235519
-0.0517868
0.223109
-0.0513119
0.211388
-0.0506322
0.200117
-0.0497518
0.189358
-0.048773
0.179195
-0.0477221
0.169597
-0.0464979
0.160438
-0.0451305
0.151745
-0.043704
0.143533
-0.0421882
0.135695
-0.0405428
0.128207
-0.038816
0.121122
-0.0371674
0.114532
-0.0353206
0.108195
-0.0328374
0.101293
-0.0295333
0.0933527
-0.024299
0.0821562
-0.0156109
0.0632456
-0.00375962
0.0321914
0.00254356
-0.000722448
0.966319
-0.00514895
0.973903
-0.00989479
0.928183
-0.0141718
0.882992
-0.0175246
0.839463
-0.020423
0.798999
-0.022931
0.760946
-0.0254752
0.724878
-0.028054
0.690523
-0.0306161
0.657756
-0.0331721
0.626422
-0.0357444
0.59663
-0.0383464
0.568183
-0.0406882
0.540945
-0.0428797
0.515017
-0.0451396
0.490232
-0.0473641
0.466412
-0.0494535
0.443599
-0.0513259
0.421686
-0.0529089
0.400663
-0.0542863
0.3806
-0.0554958
0.361424
-0.0565289
0.343069
-0.0573537
0.325476
-0.0579005
0.30862
-0.0580457
0.292429
-0.0577529
0.276918
-0.0573291
0.2623
-0.0571221
0.248581
-0.0570319
0.235429
-0.0566307
0.222708
-0.0558941
0.210651
-0.0550557
0.199279
-0.0541486
0.188451
-0.0530983
0.178145
-0.0518707
0.168369
-0.0505827
0.15915
-0.0492351
0.150398
-0.0477389
0.142037
-0.046117
0.134073
-0.0444428
0.126533
-0.04276
0.119439
-0.0410598
0.112832
-0.0387896
0.105925
-0.0359964
0.0985002
-0.0318114
0.0891676
-0.0251066
0.0754514
-0.0148564
0.0529955
-0.00235479
0.0196898
0.000188761
-0.00122182
0.96754
-0.005789
0.97847
-0.00992634
0.93232
-0.0137547
0.886821
-0.0175802
0.843289
-0.0211253
0.802544
-0.0241315
0.763952
-0.0270598
0.727807
-0.0296755
0.693139
-0.0323357
0.660417
-0.0349199
0.629006
-0.0372433
0.598953
-0.0395627
0.570502
-0.0418975
0.543279
-0.0441473
0.517266
-0.0460997
0.492185
-0.047947
0.468259
-0.0497174
0.445369
-0.0514112
0.42338
-0.0531199
0.402372
-0.0547381
0.382218
-0.0561838
0.362869
-0.0574198
0.344305
-0.0584583
0.326514
-0.0593422
0.309504
-0.0601727
0.293259
-0.0610387
0.277784
-0.0616991
0.26296
-0.0617533
0.248635
-0.0612553
0.234931
-0.0606894
0.222142
-0.0601428
0.210105
-0.0593813
0.198517
-0.0583886
0.187458
-0.0572866
0.177043
-0.0561416
0.167224
-0.0548389
0.157847
-0.0533686
0.148927
-0.051831
0.140499
-0.0502441
0.132486
-0.0485903
0.124879
-0.0470236
0.117873
-0.0450821
0.110891
-0.042682
0.103525
-0.0394111
0.0952293
-0.03425
0.0840065
-0.0253416
0.066543
-0.0118598
0.0395137
-0.00141859
0.00924856
-0.00122983
-0.00296034
0.970501
-0.00651732
0.982027
-0.00930375
0.935106
-0.0121962
0.889713
-0.015553
0.846646
-0.0190573
0.806048
-0.0222281
0.767123
-0.0250109
0.730589
-0.0281035
0.696232
-0.0308825
0.663196
-0.0338315
0.631955
-0.0369749
0.602096
-0.0398577
0.573385
-0.0426816
0.546103
-0.0454942
0.520079
-0.0484518
0.495142
-0.0513027
0.47111
-0.0540068
0.448073
-0.0564418
0.425815
-0.0586533
0.404583
-0.060578
0.384143
-0.062311
0.364602
-0.063821
0.345815
-0.0650726
0.327766
-0.0660113
0.310442
-0.0665262
0.293774
-0.06651
0.277768
-0.0661756
0.262626
-0.0659309
0.248391
-0.0658305
0.23483
-0.0654504
0.221762
-0.0646788
0.209333
-0.0637725
0.197611
-0.0628181
0.186504
-0.0617447
0.175969
-0.060466
0.165945
-0.0591056
0.156487
-0.0577248
0.147547
-0.056239
0.139014
-0.0546272
0.130874
-0.0531653
0.123417
-0.0514814
0.116189
-0.0493061
0.108716
-0.0465055
0.100724
-0.0422838
0.0910075
-0.0351247
0.0768474
-0.0235285
0.0549468
-0.00752926
0.0235145
-0.000918686
0.00263798
-0.00214851
-0.00311193
0.973613
-0.00522309
0.984138
-0.00752742
0.937411
-0.0101377
0.892323
-0.0136451
0.850153
-0.0174662
0.809869
-0.0210613
0.770718
-0.0242652
0.733793
-0.0273337
0.6993
-0.0305063
0.666368
-0.0335213
0.63497
-0.0362701
0.604845
-0.039313
0.576428
-0.042275
0.549065
-0.0450662
0.52287
-0.0476911
0.497767
-0.0502295
0.473649
-0.0526909
0.450534
-0.0551335
0.428258
-0.0575297
0.40698
-0.0597511
0.386365
-0.0618594
0.366711
-0.0636921
0.347648
-0.0652608
0.329335
-0.0665802
0.311762
-0.0677309
0.294925
-0.0688485
0.278885
-0.0698306
0.263608
-0.0702365
0.248797
-0.0699554
0.234549
-0.0694549
0.221261
-0.0689389
0.208817
-0.0682046
0.196877
-0.0672118
0.185511
-0.0660708
0.174828
-0.0649193
0.164794
-0.063672
0.15524
-0.06225
0.146124
-0.0607389
0.137502
-0.0593535
0.129489
-0.0578692
0.121933
-0.0559284
0.114248
-0.0535679
0.106355
-0.0501854
0.0973416
-0.0442521
0.0850742
-0.0336964
0.0662917
-0.0172923
0.0385427
-0.00367809
0.00990033
-0.000120847
-0.000919263
-0.00226936
-4.39237e-05
0.973657
-0.00184751
0.985941
-0.00526484
0.940828
-0.00805874
0.895117
-0.0102581
0.852352
-0.0131351
0.812747
-0.0167466
0.774329
-0.0205756
0.737622
-0.024019
0.702744
-0.0270421
0.669391
-0.0305294
0.638457
-0.0342345
0.60855
-0.0375046
0.579698
-0.0409951
0.552556
-0.044587
0.526462
-0.0482362
0.501416
-0.051853
0.477265
-0.0553764
0.454058
-0.0587404
0.431622
-0.061725
0.409964
-0.0644947
0.389134
-0.066994
0.36921
-0.069257
0.349911
-0.0712275
0.331305
-0.0728605
0.313395
-0.0740571
0.296121
-0.074649
0.279477
-0.0746789
0.263638
-0.0745811
0.248699
-0.0746034
0.234571
-0.074382
0.22104
-0.0737006
0.208136
-0.072797
0.195973
-0.0718411
0.184555
-0.0708261
0.173813
-0.0696044
0.163572
-0.0682547
0.15389
-0.0669226
0.144792
-0.0656289
0.136209
-0.064293
0.128153
-0.0625743
0.120214
-0.0605231
0.112197
-0.0576504
0.103482
-0.052569
0.0922602
-0.0432311
0.0757362
-0.0280666
0.0511273
-0.0100107
0.0204868
-0.00207568
0.00196531
-5.85347e-05
-0.00293641
-0.0023279
0.00592942
0.967727
0.00329358
0.988577
-0.00221828
0.94634
-0.00616289
0.899062
-0.00861484
0.854804
-0.0110744
0.815206
-0.0140648
0.77732
-0.0176765
0.741234
-0.0210298
0.706097
-0.0249344
0.673296
-0.0282917
0.641814
-0.0315833
0.611842
-0.03542
0.583535
-0.0388932
0.556029
-0.0423318
0.529901
-0.0457611
0.504846
-0.0492062
0.48071
-0.0525184
0.45737
-0.0558357
0.434939
-0.0591829
0.413311
-0.0623995
0.392351
-0.0653946
0.372205
-0.068162
0.352678
-0.0705906
0.333734
-0.0726953
0.315499
-0.0745202
0.297946
-0.0761687
0.281126
-0.0776844
0.265153
-0.0786782
0.249693
-0.0788503
0.234743
-0.0785608
0.22075
-0.0781557
0.207731
-0.0775232
0.195341
-0.0765951
0.183627
-0.0754269
0.172645
-0.0742482
0.162393
-0.0730978
0.15274
-0.0718651
0.14356
-0.070578
0.134922
-0.0690663
0.126641
-0.0672443
0.118392
-0.0647232
0.109676
-0.0603034
0.0990626
-0.0521589
0.0841157
-0.0382599
0.0618372
-0.0181049
0.0309723
-0.00451902
0.00690092
-0.000605301
-0.00194841
0.000191687
-0.0037334
-0.00213621
0.0149873
0.95274
0.00869046
0.994874
0.00273537
0.952295
-0.00195441
0.903752
-0.00529815
0.858148
-0.00758762
0.817496
-0.0101629
0.779895
-0.01303
0.744101
-0.0164602
0.709527
-0.0201673
0.677003
-0.0239945
0.645641
-0.0277981
0.615646
-0.0315715
0.587308
-0.0357779
0.560235
-0.0401503
0.534273
-0.0445743
0.50927
-0.0489976
0.485134
-0.0535222
0.461895
-0.0578807
0.439297
-0.0619288
0.41736
-0.0658043
0.396226
-0.0694237
0.375825
-0.0727862
0.35604
-0.075823
0.336771
-0.0784807
0.318157
-0.0806858
0.300151
-0.0822878
0.282728
-0.0830772
0.265943
-0.0834243
0.25004
-0.0837651
0.235084
-0.0838695
0.220855
-0.0833981
0.207259
-0.0825286
0.194471
-0.0815123
0.18261
-0.0804873
0.17162
-0.0793278
0.161234
-0.0780269
0.151439
-0.076739
0.142272
-0.0754165
0.133599
-0.0738432
0.125068
-0.0716032
0.116152
-0.0678017
0.105874
-0.060685
0.0919459
-0.0476322
0.0710629
-0.0268732
0.0410781
-0.00860237
0.0127014
-0.00168732
-1.41317e-05
0.000181637
-0.00381736
0.000297693
-0.00384946
-0.00183852
0.0203097
0.93243
0.0123921
1.00279
0.00747137
0.957216
0.00192163
0.909302
-0.00277754
0.862847
-0.00585168
0.82057
-0.00758223
0.781626
-0.0101454
0.746664
-0.0132523
0.712634
-0.0167034
0.680454
-0.0201408
0.649079
-0.0241951
0.6197
-0.0282493
0.591362
-0.0321292
0.564115
-0.036121
0.538265
-0.0403515
0.5135
-0.0446888
0.489471
-0.0489726
0.466179
-0.0533795
0.443704
-0.0579051
0.421885
-0.0623831
0.400704
-0.0666426
0.380084
-0.0706585
0.360056
-0.0743553
0.340467
-0.0776315
0.321433
-0.0805013
0.303021
-0.0830642
0.285291
-0.0854321
0.268311
-0.0873171
0.251925
-0.088247
0.236014
-0.0883506
0.220958
-0.0881357
0.207044
-0.0876395
0.193975
-0.0867921
0.181763
-0.0855432
0.170371
-0.0841662
0.159857
-0.0829421
0.150215
-0.0816832
0.141013
-0.0802372
0.132153
-0.0782032
0.123034
-0.074884
0.112833
-0.0687345
0.0997246
-0.0565152
0.0797266
-0.0358473
0.050395
-0.0143538
0.0195847
-0.0040652
0.00241276
-0.000695257
-0.00338408
0.000195603
-0.00470823
0.000216428
-0.00387028
-0.00162209
0.0182129
0.914217
0.0128974
1.00811
0.0111249
0.958988
0.00666338
0.913763
0.00251205
0.866999
-0.00143282
0.824515
-0.00419788
0.784391
-0.00606888
0.748535
-0.00865983
0.715225
-0.0115794
0.683373
-0.0149548
0.652454
-0.0187607
0.623506
-0.0229101
0.595512
-0.027616
0.568821
-0.0325765
0.543225
-0.0375894
0.518513
-0.0429019
0.494783
-0.0483651
0.471642
-0.0537392
0.449078
-0.0590156
0.427162
-0.064205
0.405894
-0.0692505
0.38513
-0.0740735
0.364879
-0.0785622
0.344956
-0.0826588
0.32553
-0.0862586
0.306621
-0.0892335
0.288265
-0.0912472
0.270324
-0.0924385
0.253116
-0.0934529
0.237028
-0.094123
0.221629
-0.0940685
0.20699
-0.0933219
0.193228
-0.0921432
0.180584
-0.0908693
0.169097
-0.0895727
0.15856
-0.088052
0.148694
-0.0864344
0.139395
-0.084438
0.130157
-0.0814675
0.120064
-0.0761039
0.107469
-0.0647459
0.0883665
-0.0445916
0.0595723
-0.0209626
0.026766
-0.00725249
0.00587458
-0.00268153
-0.0021582
-0.00123244
-0.00483316
-0.00058047
-0.0053602
-0.000134032
-0.00431672
-0.00175612
0.0122684
0.901949
0.0112095
1.00917
0.012136
0.958062
0.0091929
0.916706
0.00669235
0.869499
0.00249539
0.828712
-0.000378943
0.787265
-0.00330943
0.751466
-0.0056131
0.717529
-0.00791368
0.685674
-0.0113435
0.655884
-0.0150064
0.627169
-0.0187714
0.599277
-0.0228007
0.57285
-0.0271498
0.547575
-0.0319592
0.523323
-0.0368678
0.499692
-0.0420365
0.47681
-0.0476251
0.454667
-0.0534059
0.432942
-0.0592463
0.411734
-0.0650082
0.390892
-0.070589
0.37046
-0.0758637
0.350231
-0.0807551
0.330421
-0.0852277
0.311094
-0.0891191
0.292157
-0.0927131
0.273918
-0.095976
0.256379
-0.0981008
0.239153
-0.0990047
0.222532
-0.0991635
0.207149
-0.0988252
0.19289
-0.098016
0.179775
-0.0966061
0.167687
-0.0946966
0.156651
-0.0927778
0.146775
-0.0905686
0.137186
-0.0876742
0.127262
-0.082623
0.115012
-0.0723021
0.0971482
-0.0531315
0.0691959
-0.027699
0.0341398
-0.0107989
0.00986586
-0.00458146
-0.000342812
-0.00258033
-0.00415934
-0.00171975
-0.00569374
-0.00111156
-0.00596839
-0.000485797
-0.00494248
-0.00224192
0.00460167
0.897347
0.00747101
1.0063
0.0138209
0.951712
0.0122622
0.918265
0.0114962
0.870265
0.00781893
0.832389
0.00461111
0.790473
0.00174963
0.754327
-0.000611613
0.71989
-0.00341361
0.688476
-0.00579267
0.658263
-0.00897529
0.630352
-0.0130568
0.603358
-0.0177652
0.577559
-0.0228392
0.552649
-0.0280546
0.528538
-0.0339177
0.505555
-0.0401327
0.483025
-0.0463482
0.460883
-0.0527774
0.439372
-0.0593063
0.418263
-0.0658921
0.397477
-0.0723941
0.376962
-0.0787105
0.356547
-0.0846922
0.336403
-0.0901157
0.316517
-0.0949091
0.29695
-0.09876
0.277769
-0.101323
0.258942
-0.103361
0.241192
-0.105049
0.22422
-0.105855
0.207955
-0.105577
0.192612
-0.104266
0.178464
-0.102355
0.165776
-0.100177
0.154473
-0.097521
0.144119
-0.0941532
0.133818
-0.0886173
0.121726
-0.0786245
0.105019
-0.0606352
0.079159
-0.0343529
0.0429136
-0.0136701
0.013457
-0.004975
0.00117074
-0.00188954
-0.00342827
-0.000782974
-0.0052659
-0.000549406
-0.00592731
-0.000549338
-0.00596846
-0.000407894
-0.00508393
-0.00264981
-0.0010809
0.898428
0.00328379
1.00193
0.0131217
0.941874
0.0129051
0.918481
0.0144811
0.868689
0.0111939
0.835676
0.00871568
0.792951
0.00478401
0.758259
0.0026355
0.722038
-2.41455e-05
0.691136
-0.00345699
0.661696
-0.00604985
0.632944
-0.00911164
0.60642
-0.0127508
0.581198
-0.0169019
0.5568
-0.0218438
0.53348
-0.0270445
0.510756
-0.0327441
0.488725
-0.039119
0.467257
-0.0459055
0.446158
-0.0530178
0.425375
-0.0602927
0.404752
-0.0675798
0.384249
-0.0747234
0.363691
-0.0815797
0.343259
-0.0880212
0.322958
-0.093953
0.302882
-0.0992647
0.283081
-0.104295
0.263972
-0.108261
0.245158
-0.110735
0.226694
-0.111857
0.209077
-0.111927
0.192682
-0.111371
0.177907
-0.109658
0.164063
-0.106531
0.151346
-0.102295
0.139883
-0.0958617
0.127385
-0.0853702
0.111235
-0.0676553
0.0873046
-0.040416
0.0519196
-0.015477
0.0179746
-0.00264243
0.000622479
0.00321607
-0.00468776
0.00525091
-0.00546311
0.00526753
-0.00528253
0.00403706
-0.00469683
0.00222375
-0.00415516
0.000655174
-0.00351535
-0.00199464
-0.00337325
0.901801
0.00070102
0.997858
0.012218
0.930357
0.0124425
0.918257
0.0156347
0.865497
0.0144341
0.836877
0.013457
0.793928
0.00996048
0.761756
0.00748364
0.724515
0.00459465
0.694025
0.0027235
0.663567
-0.000572731
0.636241
-0.00422242
0.61007
-0.00822603
0.585202
-0.0128073
0.561381
-0.0177986
0.538471
-0.0235662
0.516523
-0.0298802
0.495039
-0.0365713
0.473949
-0.0437626
0.453349
-0.0513723
0.432985
-0.0593322
0.412712
-0.0675103
0.392427
-0.0757633
0.371944
-0.0838757
0.351372
-0.0916371
0.33072
-0.0987836
0.310029
-0.105042
0.28934
-0.109809
0.268738
-0.113407
0.248756
-0.116434
0.229722
-0.118716
0.211359
-0.119876
0.193842
-0.11902
0.177051
-0.116339
0.161382
-0.11204
0.147047
-0.105087
0.13293
-0.0939676
0.116265
-0.0752185
0.0924859
-0.0459539
0.0580399
-0.0146902
0.0206559
0.00398508
-0.000700635
0.0120376
-0.00743
0.0146883
-0.00733854
0.014506
-0.00528076
0.012649
-0.00342558
0.00961211
-0.0016599
0.0058969
-0.000439947
0.00223711
0.000144435
0.000242475
-0.00377816
0.90558
-0.000555387
0.994635
0.00798309
0.921819
0.00886066
0.917379
0.0139244
0.860433
0.0139664
0.836835
0.0148423
0.793052
0.0118077
0.76479
0.00940255
0.72692
0.00651824
0.696909
0.00405801
0.666027
0.00191085
0.638388
-0.000485776
0.612466
-0.00318905
0.587905
-0.00669137
0.564883
-0.0110723
0.542852
-0.0159139
0.521365
-0.0215906
0.500716
-0.0280909
0.480449
-0.0353038
0.460562
-0.043216
0.440897
-0.0516508
0.421147
-0.0604491
0.401225
-0.0694135
0.380908
-0.0783646
0.360323
-0.087134
0.339489
-0.0954597
0.318354
-0.103218
0.297098
-0.110517
0.276037
-0.117123
0.255362
-0.121965
0.234564
-0.125058
0.214451
-0.126306
0.19509
-0.125822
0.176568
-0.124019
0.159579
-0.118525
0.141554
-0.107089
0.121494
-0.0859597
0.0951363
-0.0521741
0.0587003
-0.0163142
0.0221801
0.0080768
-0.00373507
0.0183836
-0.0110075
0.0208364
-0.00988278
0.0201435
-0.00664561
0.018046
-0.00318331
0.0149901
-0.000369649
0.0111374
0.0021928
0.00691044
0.00378701
0.00271579
0.00433908
0.00295826
-0.00246144
0.908041
0.000613176
0.991561
0.00504829
0.917384
0.00583844
0.916589
0.0110186
0.855253
0.013095
0.834758
0.0154162
0.790731
0.0144802
0.765726
0.0135814
0.727819
0.0109082
0.699582
0.00901936
0.667916
0.0057875
0.64162
0.0030967
0.615157
-0.00014588
0.591147
-0.00372906
0.568466
-0.00780307
0.546926
-0.0128931
0.526455
-0.0186026
0.506425
-0.0250255
0.486872
-0.0322378
0.467775
-0.040239
0.448898
-0.0490118
0.42992
-0.0584506
0.410664
-0.0684023
0.39086
-0.0785941
0.370514
-0.0887328
0.349628
-0.0986568
0.328278
-0.107889
0.30633
-0.115747
0.283895
-0.122009
0.261625
-0.127193
0.239748
-0.13094
0.218198
-0.133947
0.198096
-0.134886
0.177507
-0.1302
0.154893
-0.119532
0.130885
-0.0975431
0.0995049
-0.0603105
0.0579037
-0.0233879
0.0217778
-0.0011891
-1.87974e-05
0.00856305
-0.0134872
0.0121614
-0.0146058
0.0135524
-0.0112738
0.0132208
-0.00631395
0.0118054
-0.00176796
0.00963677
0.001799
0.00700757
0.004822
0.00409598
0.00669861
0.0014604
0.00697466
0.00441866
-0.00163678
0.909678
0.0016875
0.988236
0.00139912
0.917672
0.00254426
0.915444
0.00678496
0.851012
0.00880798
0.832735
0.0115103
0.788029
0.0123553
0.764881
0.0119146
0.72826
0.0100447
0.701452
0.00909735
0.668864
0.00759259
0.643124
0.00612342
0.616626
0.00418168
0.593089
0.0015355
0.571113
-0.00171913
0.550181
-0.00544709
0.530183
-0.0103748
0.511353
-0.0162684
0.492765
-0.0230819
0.474588
-0.0309362
0.456753
-0.0398314
0.438815
-0.0496016
0.420434
-0.0599487
0.401207
-0.0707087
0.381274
-0.0817287
0.360648
-0.0927769
0.339326
-0.103492
0.317046
-0.113786
0.294188
-0.12326
0.271099
-0.131641
0.248129
-0.138122
0.22468
-0.141836
0.20181
-0.14027
0.175941
-0.131319
0.145943
-0.109468
0.109034
-0.0756216
0.0656581
-0.0462768
0.0285589
-0.0320636
0.00756467
-0.0271438
-0.00493863
-0.0246443
-0.0159868
-0.0193407
-0.0199094
-0.012831
-0.0177835
-0.00705941
-0.0120855
-0.00356019
-0.00526718
-0.00202107
0.000259878
-0.00130591
0.00410685
-0.00106702
0.00645972
-0.000768476
0.00667612
0.00365018
-0.000130303
0.909808
0.00304949
0.985056
-0.000519791
0.921241
0.00131687
0.913607
0.0033536
0.848976
0.00670051
0.829388
0.00975568
0.784974
0.0118128
0.762824
0.013501
0.726572
0.0124401
0.702513
0.0113652
0.669939
0.00937557
0.645114
0.00739925
0.618603
0.00510915
0.595379
0.0030568
0.573165
0.000295166
0.552942
-0.00368579
0.534164
-0.00812129
0.515788
-0.0135351
0.498179
-0.0198607
0.480914
-0.0273452
0.464237
-0.0362339
0.447704
-0.0462682
0.430469
-0.0573124
0.412251
-0.0690789
0.393041
-0.0814771
0.373046
-0.0942328
0.352082
-0.106861
0.329674
-0.118459
0.305787
-0.128011
0.28065
-0.137143
0.257261
-0.143583
0.231119
-0.144157
0.202384
-0.140335
0.17212
-0.122079
0.127687
-0.0969704
0.0839254
-0.078026
0.0467137
-0.0756261
0.026159