/*--------------------------------*- C++ -*----------------------------------*\
| =========                 |                                                 |
| \\      /  F ield         | OpenFOAM: The Open Source CFD Toolbox           |
|  \\    /   O peration     | Version:  v1912                                 |
|   \\  /    A nd           | Website:  www.openfoam.com                      |
|    \\/     M anipulation  |                                                 |
\*---------------------------------------------------------------------------*/
FoamFile
{
    version     2.0;
    format      ascii;
    class       volVectorField;
    location    "0.1";
    object      U;
}
// * * * * * * * * * * * * * * * * * * * * * * * * * * * * * * * * * * * * * //

dimensions      [0 1 -1 0 0 0 0];


internalField   nonuniform List<vector> 
6600
(
(39.8436 -0.0419397 0)
(40.0927 -0.051262 1.07589e-20)
(40.1581 0.0406923 7.54288e-19)
(40.2147 0.140581 0)
(40.2353 0.245127 9.13861e-19)
(40.2897 0.371445 3.06249e-20)
(40.333 0.516209 -3.3997e-20)
(40.3879 0.666637 -3.79791e-20)
(40.4366 0.81234 7.89734e-19)
(40.4827 0.975527 -1.14266e-19)
(40.5059 1.15242 0)
(40.5214 1.33983 -1.03064e-18)
(40.5363 1.54513 0)
(40.5505 1.76176 -1.13773e-18)
(40.5456 2.00042 -1.65405e-18)
(40.5161 2.27042 -9.04866e-19)
(40.5048 2.56402 0)
(40.4656 2.85796 0)
(40.3703 3.17846 1.5984e-18)
(40.2879 3.50567 -1.47201e-18)
(40.2148 3.84842 -2.24719e-19)
(40.1033 4.21793 -8.68858e-19)
(39.983 4.61141 -1.65239e-18)
(39.8553 5.02912 3.80108e-19)
(39.7146 5.47653 1.42313e-18)
(39.5657 5.94585 0)
(39.3817 6.43922 3.61882e-18)
(39.1342 6.92844 0)
(38.9649 7.46725 -1.88942e-18)
(38.8011 8.07965 -1.24685e-18)
(38.5532 8.75376 -3.45774e-19)
(38.2866 9.4391 -1.5974e-18)
(38.0712 10.1807 -6.78147e-19)
(37.8349 10.9906 1.38657e-18)
(37.5701 11.8445 3.60215e-19)
(37.3085 12.7557 1.66026e-18)
(37.0718 13.7297 3.28769e-18)
(36.8368 14.7898 3.20712e-18)
(36.6228 15.909 -2.36476e-18)
(36.4318 17.111 2.51348e-18)
(36.2406 18.3969 1.32235e-18)
(36.07 19.7634 0)
(35.9337 21.2059 -2.28751e-19)
(35.8692 22.7697 6.15679e-19)
(35.8844 24.4162 0)
(35.9586 26.2206 -9.16766e-19)
(35.9995 27.9502 -2.37009e-18)
(36.3589 30.1782 0)
(34.7779 31.0254 0)
(25.1243 24.0812 -1.85995e-18)
(39.7427 -0.0575262 6.32541e-19)
(40.1715 -0.0769408 -6.40844e-19)
(40.2298 0.0470028 0)
(40.2704 0.167365 -1.19254e-20)
(40.3287 0.301689 8.16969e-19)
(40.3762 0.448052 2.86184e-20)
(40.4328 0.608584 -1.45734e-22)
(40.4738 0.768696 -3.51468e-20)
(40.5253 0.95037 0)
(40.5717 1.14342 -1.3566e-18)
(40.6126 1.34305 -4.91208e-20)
(40.6491 1.56449 8.44825e-19)
(40.6674 1.79262 8.95586e-19)
(40.6844 2.02925 6.82556e-19)
(40.6797 2.27214 -3.02418e-21)
(40.6723 2.51349 9.51356e-20)
(40.626 2.74869 -8.41739e-19)
(40.5915 3.03333 0)
(40.5707 3.32208 0)
(40.5089 3.65025 1.51915e-18)
(40.4411 4.00656 2.13794e-19)
(40.3623 4.38268 -1.14346e-18)
(40.2591 4.78567 -1.05709e-18)
(40.1434 5.2153 -1.23236e-18)
(40.0119 5.67312 -1.03646e-18)
(39.8633 6.16356 -4.41974e-19)
(39.7132 6.69789 -5.9546e-19)
(39.6029 7.32698 -5.9423e-19)
(39.4202 7.9626 1.86244e-18)
(39.184 8.57409 3.0541e-19)
(38.9938 9.22792 -2.43028e-18)
(38.8389 9.95479 2.25114e-18)
(38.6378 10.7109 1.57657e-18)
(38.419 11.5088 -2.04741e-18)
(38.2121 12.3628 3.80079e-19)
(38.0289 13.2744 -1.69805e-18)
(37.849 14.253 1.2602e-18)
(37.6913 15.2814 -1.15838e-18)
(37.5684 16.388 -6.79285e-19)
(37.466 17.5645 -7.56936e-19)
(37.3917 18.8016 0)
(37.3717 20.1258 0)
(37.4162 21.5376 1.81926e-19)
(37.4912 23.0244 -2.78038e-19)
(37.6107 24.5595 -1.58138e-18)
(37.8378 26.2594 9.46615e-19)
(38.0979 27.9398 4.0178e-18)
(38.5868 29.8696 0)
(36.9799 30.3114 -4.75077e-18)
(26.0339 22.8828 2.07586e-18)
(39.6433 -0.0191789 -5.23463e-20)
(40.2974 -0.070618 6.52907e-19)
(40.3242 0.0806955 6.35558e-19)
(40.3875 0.208064 -3.60692e-22)
(40.4285 0.349777 -1.13402e-19)
(40.4932 0.509957 2.65709e-20)
(40.5513 0.671723 0)
(40.6216 0.843663 0)
(40.6756 1.02137 0)
(40.7197 1.20161 7.08101e-19)
(40.7579 1.41869 -4.40444e-20)
(40.7946 1.62284 -8.50197e-19)
(40.8236 1.85799 -4.88433e-19)
(40.8446 2.10265 9.69036e-19)
(40.8609 2.38299 5.50013e-19)
(40.8586 2.69634 -8.72802e-20)
(40.8673 3.0255 1.67442e-18)
(40.8367 3.34144 -8.43342e-19)
(40.7668 3.69422 -9.78896e-19)
(40.7196 4.04758 0)
(40.6568 4.42853 -6.63855e-19)
(40.5821 4.83406 9.15957e-19)
(40.4971 5.26565 1.06975e-18)
(40.4052 5.72322 1.24789e-18)
(40.3066 6.20555 1.11264e-18)
(40.2031 6.71257 -1.19738e-19)
(40.052 7.22164 -2.18618e-19)
(39.8619 7.73042 -6.50725e-19)
(39.7645 8.3107 -2.87143e-19)
(39.674 8.97388 1.1348e-18)
(39.4912 9.68013 3.66806e-19)
(39.3042 10.3905 0)
(39.1883 11.1563 -1.777e-18)
(39.0575 11.9745 4.6672e-19)
(38.9056 12.83 1.0054e-18)
(38.7719 13.736 1.31251e-18)
(38.6824 14.6923 -8.36534e-19)
(38.6084 15.7207 -5.02266e-19)
(38.573 16.7904 4.27875e-19)
(38.5823 17.9268 0)
(38.6164 19.1268 3.69747e-19)
(38.6959 20.3838 0)
(38.8338 21.6912 0)
(39.0768 23.0924 1.70458e-18)
(39.4415 24.5493 1.05498e-18)
(39.8787 26.1207 -2.36513e-18)
(40.3467 27.7055 -2.47365e-18)
(40.8471 29.3531 0)
(38.9782 29.3131 -2.95057e-18)
(26.5584 21.3353 3.21576e-18)
(39.5932 -9.52167e-05 -5.84432e-19)
(40.4135 -0.0544125 4.27906e-21)
(40.4485 0.130607 -6.52262e-19)
(40.49 0.254345 -5.83658e-19)
(40.5487 0.412358 -7.22574e-19)
(40.6009 0.582898 -3.33459e-19)
(40.6705 0.767524 -2.57115e-20)
(40.7298 0.953791 0)
(40.7876 1.15286 4.49265e-19)
(40.8483 1.37438 5.31992e-19)
(40.8985 1.59234 -3.81857e-20)
(40.9413 1.84211 -4.35327e-20)
(40.9697 2.09611 -3.75221e-19)
(41.0001 2.35424 -1.38704e-19)
(41.0122 2.60988 -3.40645e-20)
(41.0115 2.8606 -7.42741e-20)
(40.9991 3.15822 -5.04634e-20)
(40.9936 3.46798 9.49586e-19)
(40.9998 3.79168 1.27701e-18)
(40.9539 4.15807 0)
(40.9206 4.54152 1.32878e-19)
(40.8691 4.95035 0)
(40.7993 5.38698 0)
(40.7227 5.85079 -2.40983e-19)
(40.6327 6.3431 7.42357e-19)
(40.5303 6.86602 8.62532e-19)
(40.4476 7.44677 -1.76834e-19)
(40.388 8.10667 9.22325e-19)
(40.2536 8.76422 0)
(40.0882 9.38613 0)
(39.9896 10.0544 4.434e-19)
(39.9229 10.8008 0)
(39.8137 11.5708 4.68412e-19)
(39.7079 12.3781 6.21273e-19)
(39.6286 13.227 -1.14209e-18)
(39.5824 14.1253 -1.01644e-18)
(39.5559 15.0769 4.28585e-19)
(39.5679 16.0593 -1.55278e-19)
(39.6293 17.1067 3.37104e-19)
(39.7303 18.2016 3.91564e-19)
(39.8814 19.3323 -1.39922e-18)
(40.1083 20.5226 0)
(40.4267 21.7746 0)
(40.7949 23.0641 -1.13805e-18)
(41.2198 24.3641 -2.29023e-18)
(41.7598 25.7858 -6.75453e-19)
(42.3678 27.2863 -4.14676e-18)
(42.8158 28.5503 4.57965e-18)
(40.5451 28.0444 6.55005e-18)
(26.5794 19.4671 0)
(39.5662 0.00882687 -1.79595e-21)
(40.5464 -0.0282045 4.36405e-19)
(40.5756 0.202238 4.7317e-19)
(40.6703 0.308763 6.04988e-19)
(40.7049 0.48833 0)
(40.7775 0.668083 6.33236e-20)
(40.8347 0.848229 0)
(40.9029 1.03583 -2.31009e-20)
(40.9728 1.23583 -7.84087e-19)
(41.0287 1.43953 -5.28456e-19)
(41.0763 1.67142 3.13209e-20)
(41.1183 1.88918 3.54165e-20)
(41.1646 2.14025 -3.94147e-20)
(41.1931 2.41465 -4.03725e-19)
(41.2298 2.73002 -8.61058e-19)
(41.2704 3.0719 5.76792e-20)
(41.2811 3.40778 -1.05813e-18)
(41.267 3.76617 7.81192e-20)
(41.239 4.15168 -4.00274e-19)
(41.217 4.53836 -2.04457e-19)
(41.1818 4.95523 6.58419e-19)
(41.1429 5.39157 0)
(41.1006 5.85019 0)
(41.0475 6.337 -2.89925e-19)
(40.9968 6.84814 -4.79691e-19)
(40.9466 7.38341 4.78639e-19)
(40.8321 7.89895 -1.28602e-19)
(40.7045 8.41841 0)
(40.6804 9.02397 1.51977e-19)
(40.668 9.723 -1.69283e-19)
(40.5627 10.4433 -4.50659e-19)
(40.4637 11.1564 -3.52953e-19)
(40.4565 11.922 1.72783e-19)
(40.4424 12.7314 -9.98992e-20)
(40.4174 13.5705 1.11163e-19)
(40.425 14.4455 0)
(40.4909 15.3581 -4.1099e-20)
(40.5868 16.3285 9.07039e-19)
(40.7367 17.3163 -4.48391e-19)
(40.9463 18.3488 -6.23656e-19)
(41.197 19.4207 1.04554e-18)
(41.5069 20.5205 0)
(41.8797 21.6335 0)
(42.3669 22.8001 -2.18327e-18)
(42.9984 23.9933 4.77658e-18)
(43.6957 25.2606 1.2869e-18)
(44.4025 26.6027 2.539e-18)
(44.6584 27.56 -5.51593e-18)
(41.704 26.501 4.7526e-19)
(26.0545 17.3116 -8.83596e-18)
(39.5228 0.0209547 3.8162e-19)
(40.7393 -0.00244415 -8.92484e-20)
(40.7342 0.29027 -4.82707e-19)
(40.8025 0.378809 1.90902e-19)
(40.8702 0.571374 0)
(40.9235 0.751983 2.91639e-19)
(40.9942 0.940448 -8.5045e-21)
(41.0517 1.15413 -2.36126e-19)
(41.1246 1.36706 3.59922e-19)
(41.1949 1.61066 0)
(41.2598 1.85136 2.32029e-20)
(41.3161 2.11496 1.36558e-19)
(41.3598 2.38427 -2.07614e-19)
(41.4118 2.64837 3.20716e-20)
(41.4448 2.91828 3.87601e-19)
(41.4437 3.1965 -4.07763e-20)
(41.4676 3.52023 3.64106e-19)
(41.497 3.85172 -5.24401e-20)
(41.5151 4.21522 6.10355e-20)
(41.5143 4.6075 1.28413e-19)
(41.508 5.02181 1.80283e-19)
(41.4963 5.45786 -6.46777e-22)
(41.467 5.92212 9.99573e-20)
(41.4361 6.40885 3.82942e-19)
(41.3923 6.9277 0)
(41.3414 7.47968 -3.67541e-19)
(41.3343 8.10254 6.93053e-20)
(41.3375 8.78184 -7.18551e-21)
(41.2637 9.44158 -8.96332e-20)
(41.1711 10.0594 7.45386e-20)
(41.1678 10.7301 2.21605e-20)
(41.1991 11.4747 2.00964e-19)
(41.1873 12.2313 0)
(41.1956 13.0162 0)
(41.2442 13.8298 0)
(41.3364 14.682 0)
(41.4611 15.5717 9.30887e-19)
(41.6354 16.4686 -1.75286e-18)
(41.8689 17.4137 0)
(42.1494 18.3818 4.21149e-20)
(42.488 19.3573 -2.57313e-19)
(42.9089 20.3605 -3.15119e-18)
(43.4339 21.3988 1.73464e-18)
(44.0138 22.4367 0)
(44.6325 23.4464 1.80735e-18)
(45.3439 24.5444 -6.55197e-18)
(46.0447 25.7588 4.67517e-18)
(46.0544 26.2873 3.52945e-18)
(42.2334 24.7054 1.31337e-17)
(24.8136 14.8718 -9.82624e-18)
(39.5139 0.0590506 -3.76517e-19)
(40.9181 0.00927862 -6.02332e-19)
(40.9306 0.326665 4.85739e-21)
(41.0131 0.430512 -1.92036e-19)
(41.0541 0.645153 1.24144e-19)
(41.1391 0.811929 -5.21223e-21)
(41.2181 1.00797 1.35947e-19)
(41.2979 1.21183 2.37073e-19)
(41.3656 1.43617 1.3859e-19)
(41.4315 1.65969 -6.67275e-21)
(41.4823 1.89889 -6.81933e-20)
(41.5451 2.14151 -9.41457e-20)
(41.6192 2.41255 1.79775e-19)
(41.6625 2.72378 0)
(41.7261 3.06278 0)
(41.8135 3.41809 1.02446e-20)
(41.8389 3.77727 1.63259e-19)
(41.8423 4.17619 0)
(41.864 4.57268 1.35166e-20)
(41.8665 4.99832 -2.13071e-19)
(41.8756 5.44066 -2.06082e-19)
(41.8795 5.90549 -1.28098e-20)
(41.8852 6.38759 0)
(41.8805 6.89659 -1.47439e-19)
(41.8808 7.42508 -1.35077e-20)
(41.8869 7.97242 1.50801e-20)
(41.8141 8.48757 0)
(41.7521 9.01434 0)
(41.7985 9.6244 -1.65894e-19)
(41.8642 10.3275 1.71672e-19)
(41.8453 11.0408 -1.18355e-19)
(41.839 11.7378 1.06916e-19)
(41.936 12.4736 2.31379e-19)
(42.0325 13.2419 -5.97438e-19)
(42.1283 14.029 1.17982e-18)
(42.2654 14.8341 4.87231e-19)
(42.4667 15.6604 -6.61861e-19)
(42.7081 16.5303 9.43912e-19)
(43.007 17.3923 -1.75924e-18)
(43.368 18.273 5.6036e-20)
(43.7754 19.1691 -3.10384e-19)
(44.2449 20.0684 1.62634e-18)
(44.7623 20.9445 2.54323e-18)
(45.3788 21.8337 -2.82519e-18)
(46.1481 22.7353 1.80881e-18)
(46.982 23.739 0)
(47.5817 24.6096 2.87366e-18)
(47.1903 24.8895 4.41919e-18)
(42.1195 22.6515 -9.00941e-18)
(22.79 12.2041 -2.76815e-18)
(39.537 0.0749722 1.91819e-19)
(41.0815 0.0147252 2.52264e-19)
(41.1409 0.359951 1.73488e-21)
(41.226 0.449673 -5.78472e-20)
(41.2724 0.705743 -1.81119e-19)
(41.3285 0.902754 4.24314e-20)
(41.4192 1.09782 -1.61147e-19)
(41.4951 1.32389 7.21139e-21)
(41.5812 1.55501 -1.33102e-19)
(41.6526 1.80741 8.81964e-21)
(41.735 2.06958 4.93072e-20)
(41.8062 2.35269 -7.17316e-20)
(41.8758 2.63173 5.46106e-20)
(41.9623 2.90532 6.26764e-22)
(42.0053 3.19035 4.9468e-20)
(42.0329 3.51494 -6.40465e-20)
(42.0923 3.84807 -3.57308e-20)
(42.1533 4.19724 0)
(42.1917 4.59127 0)
(42.243 4.99509 0)
(42.2723 5.43498 1.1982e-20)
(42.3045 5.89342 -1.79363e-20)
(42.3256 6.37926 1.40546e-19)
(42.3434 6.88502 2.46661e-20)
(42.3523 7.41957 0)
(42.3556 7.98732 0)
(42.4223 8.63235 -2.11558e-19)
(42.4981 9.32129 9.92672e-20)
(42.4996 9.97507 -1.05153e-19)
(42.4752 10.5726 1.24412e-19)
(42.5528 11.2142 4.14199e-20)
(42.6805 11.9305 4.92856e-19)
(42.7631 12.6515 -2.18036e-19)
(42.8698 13.3817 8.87892e-19)
(43.0243 14.1241 -5.67384e-19)
(43.2308 14.8926 -2.64394e-19)
(43.4736 15.6815 1.65708e-19)
(43.7658 16.451 7.70348e-19)
(44.1181 17.2525 7.58262e-19)
(44.513 18.0561 1.24649e-18)
(44.962 18.8413 -2.89079e-19)
(45.4837 19.6233 2.34646e-18)
(46.1116 20.42 -2.60995e-18)
(46.7999 21.1911 0)
(47.4954 21.9161 0)
(48.2825 22.8009 0)
(48.5902 23.3224 0)
(47.6663 23.2825 0)
(41.1381 20.3877 -5.15966e-18)
(19.8277 9.38202 8.47431e-18)
(39.5868 0.0863432 -1.92205e-19)
(41.2813 0.018477 0)
(41.3535 0.421439 0)
(41.4716 0.474504 5.82274e-20)
(41.5025 0.749907 5.10536e-20)
(41.574 0.940509 -3.95635e-20)
(41.6571 1.15558 2.73226e-20)
(41.7582 1.35746 -7.23438e-21)
(41.8465 1.58302 -7.53297e-20)
(41.9532 1.81797 -1.41001e-20)
(42.0175 2.07509 2.16125e-20)
(42.1007 2.34281 -1.49142e-19)
(42.1963 2.63652 -1.50177e-19)
(42.2741 2.98298 0)
(42.3928 3.34703 -4.99357e-20)
(42.4988 3.69476 7.98833e-20)
(42.561 4.09545 1.79849e-21)
(42.6048 4.51306 2.62349e-19)
(42.675 4.92583 -3.40729e-19)
(42.7163 5.38047 0)
(42.7724 5.83792 0)
(42.8227 6.32225 -2.78534e-19)
(42.8756 6.82433 1.74154e-19)
(42.9231 7.34889 4.11158e-19)
(42.9757 7.88815 9.99011e-20)
(43.0369 8.43729 -4.18987e-19)
(43.0164 8.94446 5.91581e-19)
(43.0113 9.46112 -6.62864e-19)
(43.1191 10.0547 3.42969e-19)
(43.261 10.7405 -2.95414e-19)
(43.3265 11.4266 1.75402e-19)
(43.3965 12.076 -5.18914e-19)
(43.5719 12.7515 4.22138e-19)
(43.7569 13.4524 -6.53515e-19)
(43.9476 14.1588 0)
(44.1763 14.8627 -6.71928e-19)
(44.4648 15.5682 -6.66028e-19)
(44.7964 16.3072 1.71308e-19)
(45.178 17.0156 1.54227e-18)
(45.6148 17.7171 -1.52207e-18)
(46.0949 18.4145 -2.60819e-19)
(46.6367 19.1023 -2.68993e-18)
(47.2036 19.7385 6.33828e-18)
(47.8343 20.351 4.19473e-19)
(48.6291 20.9929 4.94375e-19)
(49.3963 21.7075 -2.505e-18)
(49.517 21.9434 0)
(47.7193 21.536 4.60611e-18)
(39.2089 17.8646 -2.45661e-18)
(15.8985 6.45961 0)
(39.6516 0.0935291 -2.22059e-23)
(41.5288 0.0380043 -1.48578e-22)
(41.5822 0.480513 6.5746e-20)
(41.6708 0.501989 0)
(41.7495 0.792453 1.35539e-21)
(41.826 0.995966 7.84406e-20)
(41.9009 1.21202 0)
(41.9884 1.4547 -1.26341e-19)
(42.0994 1.69677 8.31494e-20)
(42.1891 1.94992 -8.46246e-21)
(42.3164 2.21658 -2.33331e-19)
(42.4134 2.50715 -9.31794e-22)
(42.5222 2.79839 1.12177e-19)
(42.6379 3.07608 0)
(42.692 3.38124 0)
(42.7731 3.75002 0)
(42.8755 4.08034 3.23875e-19)
(42.9761 4.45832 -2.65041e-19)
(43.0535 4.86309 6.24797e-19)
(43.1493 5.27773 -6.4443e-20)
(43.2258 5.73132 1.49393e-19)
(43.3018 6.20516 1.93846e-19)
(43.3755 6.70191 -8.69657e-19)
(43.445 7.21885 -7.31494e-19)
(43.5098 7.75792 0)
(43.5671 8.32828 4.09993e-19)
(43.697 8.97117 -1.04826e-18)
(43.8458 9.65399 6.20594e-19)
(43.9215 10.2947 -3.51483e-19)
(43.9523 10.8626 2.05719e-19)
(44.0837 11.4552 -2.80674e-19)
(44.2873 12.1212 1.06074e-18)
(44.4436 12.7818 -1.14683e-18)
(44.6137 13.4318 1.61285e-18)
(44.8322 14.0796 6.69551e-19)
(45.1076 14.7432 -1.58076e-18)
(45.4158 15.4136 1.98723e-18)
(45.7639 16.0366 -1.28622e-18)
(46.1656 16.6767 3.17677e-20)
(46.5995 17.3056 0)
(47.0783 17.8998 2.18207e-18)
(47.6084 18.463 1.49452e-18)
(48.2376 19.024 1.66852e-19)
(48.9498 19.5599 -4.27626e-18)
(49.6901 20.1143 -1.48974e-19)
(50.0918 20.4732 -2.96877e-18)
(49.7404 20.4699 0)
(46.7898 19.5404 4.76725e-18)
(36.06 15.0596 -8.00669e-18)
(10.7258 3.41569 0)
(39.7265 0.106029 0)
(41.7867 0.0551267 0)
(41.8258 0.478984 4.17643e-21)
(41.8899 0.51729 4.27891e-21)
(41.9725 0.81161 -1.12019e-19)
(42.0785 0.952876 -8.01098e-20)
(42.1732 1.18906 0)
(42.3048 1.42067 1.26631e-19)
(42.4124 1.66652 -2.41029e-19)
(42.5475 1.9148 0)
(42.6483 2.16685 4.09706e-19)
(42.7611 2.4537 -6.90641e-20)
(42.8715 2.76052 2.75023e-20)
(43.0091 3.12402 -3.06631e-20)
(43.1965 3.48595 0)
(43.3302 3.84731 0)
(43.4219 4.26905 -1.31301e-19)
(43.5227 4.69097 -2.77655e-19)
(43.6531 5.14342 1.08023e-19)
(43.7487 5.61368 -4.81454e-20)
(43.8533 6.08389 1.11118e-19)
(43.9515 6.57861 -6.40583e-20)
(44.0512 7.09013 5.32269e-19)
(44.1461 7.62239 2.21722e-19)
(44.2462 8.16425 -4.10287e-19)
(44.3521 8.70864 -6.19705e-19)
(44.3859 9.20677 3.90493e-19)
(44.4216 9.70201 6.31353e-19)
(44.5636 10.2554 0)
(44.7659 10.9018 0)
(44.9044 11.5513 0)
(45.0249 12.1388 -7.54058e-19)
(45.2362 12.7354 -5.39012e-19)
(45.4693 13.3517 -5.38956e-19)
(45.7142 13.9642 8.28226e-19)
(45.9847 14.5579 1.00561e-18)
(46.3032 15.1315 -4.51314e-19)
(46.663 15.7346 1.41009e-18)
(47.0593 16.2922 -8.22588e-19)
(47.4984 16.8196 -1.08937e-18)
(47.9716 17.3256 -1.33395e-18)
(48.5097 17.8208 1.48734e-18)
(49.0606 18.2528 0)
(49.6345 18.6504 2.32276e-18)
(50.3319 19.0773 -1.24548e-18)
(50.513 19.1859 1.57276e-18)
(49.6982 18.9104 0)
(45.1497 17.2808 -2.32432e-18)
(31.7639 11.8326 1.34994e-18)
(6.14314 0.921267 0)
(39.8235 0.123482 -7.78797e-20)
(42.0413 0.0349294 0)
(42.0805 0.449227 -1.83427e-19)
(42.1593 0.512936 1.35929e-19)
(42.2102 0.826806 1.09643e-19)
(42.3256 0.985748 -5.3132e-21)
(42.4556 1.20982 5.9132e-21)
(42.5582 1.44857 0)
(42.688 1.69769 2.32222e-19)
(42.809 1.9577 -1.87543e-19)
(42.968 2.24892 -1.76116e-19)
(43.1145 2.51391 2.27766e-19)
(43.2792 2.82572 -1.68677e-19)
(43.4098 3.1036 -4.4345e-20)
(43.5008 3.44133 2.55762e-20)
(43.6383 3.80447 0)
(43.8143 4.15874 -2.99285e-19)
(43.9477 4.54872 3.53812e-19)
(44.0631 4.94904 5.94095e-20)
(44.2014 5.38294 -3.82806e-21)
(44.3284 5.84908 7.27054e-20)
(44.453 6.33237 0)
(44.5766 6.83423 1.08424e-19)
(44.6953 7.35278 4.39333e-19)
(44.8106 7.88819 5.22021e-19)
(44.9142 8.45029 6.23179e-19)
(45.0823 9.0701 0)
(45.2891 9.73253 -4.45533e-19)
(45.4288 10.3593 -9.62953e-19)
(45.4917 10.8953 5.29217e-19)
(45.6389 11.4299 -1.13511e-18)
(45.883 12.0363 -5.54527e-19)
(46.0845 12.6316 9.83975e-19)
(46.2784 13.1964 -3.58608e-19)
(46.5116 13.7451 -8.35372e-19)
(46.8039 14.3003 -4.36084e-19)
(47.1243 14.8599 -6.03413e-19)
(47.4703 15.3468 0)
(47.8585 15.8349 -9.88764e-19)
(48.2659 16.306 2.19413e-18)
(48.7123 16.739 1.34865e-18)
(49.1823 17.1165 -1.59618e-18)
(49.728 17.4795 2.04788e-18)
(50.4686 17.8953 -1.04337e-18)
(50.8054 18.0575 2.66964e-18)
(50.581 17.96 -8.70345e-23)
(48.5891 17.2037 0)
(41.938 14.6706 4.73874e-18)
(26.1169 8.24907 -4.00467e-18)
(3.42549 -0.140699 -1.44182e-18)
(39.9109 0.12071 7.82571e-20)
(42.279 -0.013812 -1.33215e-19)
(42.3543 0.428591 1.10786e-19)
(42.434 0.483735 -1.33526e-19)
(42.4749 0.788194 -1.05216e-19)
(42.5856 0.945832 -6.93557e-21)
(42.7336 1.13989 3.99378e-21)
(42.8821 1.35823 0)
(43.0302 1.57711 -1.98914e-19)
(43.1947 1.83578 3.10535e-19)
(43.3342 2.09179 0)
(43.5003 2.40733 -2.08413e-20)
(43.6442 2.70981 3.9009e-21)
(43.8577 3.07903 2.28141e-19)
(44.0868 3.42155 -3.40275e-19)
(44.2587 3.80192 -2.56039e-21)
(44.3852 4.22627 4.68736e-20)
(44.5661 4.66699 0)
(44.757 5.14004 -1.82926e-19)
(44.9091 5.61999 3.98195e-19)
(45.0617 6.10489 -4.62508e-20)
(45.2109 6.60978 0)
(45.3527 7.13237 0)
(45.4876 7.66886 -2.1834e-19)
(45.6224 8.21156 9.47327e-20)
(45.7571 8.75157 -6.94519e-19)
(45.8386 9.25016 2.57339e-19)
(45.8943 9.72244 -1.47817e-19)
(46.0327 10.2217 4.72832e-19)
(46.2616 10.8127 2.06902e-19)
(46.4503 11.4221 6.53157e-19)
(46.5932 11.9495 -6.83587e-19)
(46.7949 12.4693 4.37137e-19)
(47.0312 13.0041 -4.49035e-19)
(47.2901 13.53 -5.24924e-19)
(47.5583 14.0284 -5.62751e-19)
(47.8562 14.4798 0)
(48.1904 14.9623 1.33731e-18)
(48.5461 15.3979 -4.98298e-19)
(48.9326 15.7861 -1.18906e-18)
(49.3363 16.1327 1.41146e-18)
(49.807 16.4752 -3.65324e-20)
(50.3502 16.8011 -1.01244e-18)
(50.7331 16.9965 -2.1599e-20)
(50.7527 16.9947 -1.34839e-18)
(50.0021 16.6636 -3.41543e-18)
(46.7158 15.4224 1.92146e-18)
(37.559 12.0248 0)
(18.5785 4.71968 -2.56542e-18)
(1.11044 -0.33686 4.94023e-18)
(39.9517 0.146836 2.59704e-22)
(42.5043 -0.0227468 1.33913e-19)
(42.6203 0.437955 -4.62059e-20)
(42.7102 0.414269 -1.54025e-21)
(42.751 0.734658 1.0547e-19)
(42.844 0.88876 0)
(42.9709 1.10629 0)
(43.1338 1.32637 -6.37086e-21)
(43.3111 1.5624 3.46821e-19)
(43.4746 1.77903 -1.26052e-19)
(43.6612 2.06873 1.07901e-20)
(43.852 2.32029 -2.4904e-20)
(44.0767 2.62662 1.14623e-19)
(44.2312 2.92697 -1.18603e-19)
(44.4041 3.28246 4.89606e-19)
(44.6069 3.64089 -1.09545e-19)
(44.8324 3.99692 1.3e-19)
(45.0027 4.39453 3.62687e-20)
(45.157 4.79973 -3.85649e-19)
(45.3452 5.25011 -2.59284e-19)
(45.5271 5.72509 3.0904e-21)
(45.7012 6.22332 -6.65499e-20)
(45.8697 6.73442 0)
(46.0305 7.25683 -2.9672e-19)
(46.185 7.79093 2.6484e-21)
(46.3247 8.34221 6.73104e-20)
(46.504 8.93268 7.44257e-20)
(46.7426 9.57323 1.91717e-19)
(46.9292 10.1942 0)
(47.0029 10.7114 1.26426e-19)
(47.1249 11.1923 7.0871e-19)
(47.3589 11.7404 6.42153e-19)
(47.5695 12.2775 -3.37808e-19)
(47.756 12.771 6.95064e-19)
(47.9638 13.2366 -5.65026e-19)
(48.227 13.695 -3.43328e-19)
(48.5158 14.1699 0)
(48.8159 14.5559 -8.95518e-19)
(49.1454 14.9224 -5.62202e-19)
(49.478 15.2691 6.27969e-19)
(49.8521 15.593 -7.45997e-19)
(50.2477 15.8681 8.64003e-19)
(50.7171 16.1417 0)
(50.8593 16.1986 5.77564e-19)
(50.6698 16.115 0)
(48.8434 15.4763 8.46052e-19)
(43.2541 13.609 -1.91085e-18)
(30.4572 9.23424 1.0769e-18)
(8.95634 1.79272 0)
(-0.676023 -0.110988 3.19153e-19)
(40.0322 0.213588 3.97721e-23)
(42.7069 0.0109013 4.67345e-23)
(42.8224 0.417979 4.75011e-20)
(42.9116 0.319103 2.45441e-22)
(43.0055 0.619922 2.13106e-21)
(43.133 0.716588 3.38884e-22)
(43.2491 0.953477 -3.77215e-22)
(43.4409 1.13322 9.49528e-22)
(43.6194 1.33499 -1.29543e-19)
(43.848 1.60125 -2.80082e-21)
(44.0484 1.81536 -1.60852e-21)
(44.2497 2.12387 3.70991e-21)
(44.459 2.42966 1.27805e-19)
(44.7342 2.76114 -1.5485e-19)
(44.995 3.11065 -1.94351e-19)
(45.218 3.49595 1.09386e-19)
(45.4198 3.94426 -1.25803e-19)
(45.6693 4.3828 -5.63821e-21)
(45.9165 4.86994 -6.65149e-21)
(46.13 5.35364 0)
(46.3383 5.86615 -9.22217e-21)
(46.5365 6.38424 -5.15715e-21)
(46.7183 6.92299 5.76494e-21)
(46.8867 7.47207 0)
(47.0426 8.02686 0)
(47.1896 8.57437 2.70716e-19)
(47.3026 9.08778 0)
(47.363 9.55526 -1.91968e-19)
(47.4626 10.0115 0)
(47.6721 10.5462 9.19623e-21)
(47.8799 11.1208 -3.28486e-19)
(48.0229 11.6028 2.32614e-20)
(48.18 12.0609 -4.51812e-19)
(48.3753 12.5274 4.02026e-20)
(48.6118 12.9852 2.53479e-19)
(48.8467 13.4222 3.87544e-19)
(49.0899 13.7786 -1.33825e-20)
(49.3621 14.1646 0)
(49.6401 14.5189 -9.10506e-21)
(49.9464 14.8255 1.0609e-20)
(50.2572 15.0802 0)
(50.7111 15.3954 -1.34077e-20)
(50.887 15.5036 -6.35903e-20)
(50.7929 15.5051 -5.39596e-19)
(49.7143 15.1852 -1.10502e-20)
(46.2356 14.0833 0)
(37.8128 11.3341 0)
(21.5159 5.88059 1.47155e-19)
(3.7743 0.598185 -1.4561e-19)
(-1.41056 0.0178694 3.2743e-19)
(40.2185 0.190844 1.01239e-19)
(42.8236 0.00850136 1.122e-19)
(42.9523 0.30985 6.35935e-20)
(43.0608 0.21661 7.62011e-20)
(43.2208 0.473113 8.22681e-20)
(43.3618 0.579657 -9.99935e-20)
(43.5016 0.811783 0)
(43.6564 0.997039 0)
(43.8749 1.20172 8.56681e-20)
(44.0787 1.39411 2.80048e-21)
(44.3423 1.68987 -1.14194e-19)
(44.589 1.91329 -8.2785e-21)
(44.8341 2.19121 -1.6294e-19)
(45.0587 2.51586 1.9513e-19)
(45.3069 2.84452 2.53329e-19)
(45.5828 3.20278 0)
(45.8641 3.56297 0)
(46.0933 3.97915 5.63743e-21)
(46.2877 4.3846 6.65863e-21)
(46.5422 4.85589 -2.87598e-19)
(46.7581 5.34033 9.23301e-21)
(46.9852 5.85811 0)
(47.1985 6.38991 0)
(47.3932 6.9346 -6.47174e-20)
(47.5772 7.4808 -3.16765e-19)
(47.7437 8.03472 9.43399e-20)
(47.9145 8.60964 0)
(48.1499 9.23468 -2.43918e-19)
(48.3598 9.86375 0)
(48.4351 10.3916 -9.19325e-21)
(48.505 10.8423 0)
(48.6774 11.3446 0)
(48.8558 11.8389 1.22856e-19)
(49.0134 12.2847 1.43177e-19)
(49.172 12.6951 0)
(49.3721 13.0721 0)
(49.5998 13.4913 1.33751e-20)
(49.8294 13.8256 0)
(50.083 14.1175 9.09906e-21)
(50.3246 14.3838 -3.58964e-19)
(50.6998 14.7185 3.8876e-19)
(50.8745 14.8813 2.90931e-20)
(50.849 14.9385 1.75624e-20)
(50.2647 14.8307 -6.04212e-19)
(48.1721 14.2332 -3.50085e-19)
(42.4003 12.4802 1.99908e-18)
(30.0986 8.66341 -9.00392e-19)
(9.78254 2.29141 -1.03212e-18)
(0.249806 0.233127 8.5007e-19)
(-1.81154 -0.0399608 0)
(40.2884 0.0380623 -1.00619e-19)
(42.8785 -0.0711633 1.31817e-19)
(43.0534 0.124998 -6.24576e-20)
(43.1679 0.138407 8.99028e-20)
(43.3745 0.3043 -8.72852e-20)
(43.5704 0.342065 1.02896e-19)
(43.755 0.517332 8.29611e-21)
(43.956 0.713825 -9.2369e-21)
(44.1618 0.905572 -7.3885e-20)
(44.4098 1.12752 -1.30662e-20)
(44.6404 1.28784 1.21534e-19)
(44.921 1.61244 3.22732e-19)
(45.222 1.89324 -2.1287e-19)
(45.5355 2.175 -1.78354e-19)
(45.8559 2.53757 -8.28874e-19)
(46.1501 2.92063 4.02023e-20)
(46.4201 3.35889 -4.48739e-20)
(46.749 3.80687 4.63207e-19)
(47.0719 4.31982 6.66286e-20)
(47.3386 4.8184 2.12829e-19)
(47.5999 5.34726 0)
(47.8846 5.89025 0)
(48.1039 6.46212 0)
(48.3025 7.03963 0)
(48.4781 7.62403 3.13334e-19)
(48.6287 8.20573 -8.11883e-19)
(48.7518 8.7621 0)
(48.8102 9.26246 7.82284e-19)
(48.8446 9.70755 0)
(48.9854 10.1995 0)
(49.1702 10.7554 -8.12747e-19)
(49.2952 11.2175 4.55716e-19)
(49.39 11.6347 -1.03438e-18)
(49.5114 12.0508 2.98523e-19)
(49.6929 12.455 0)
(49.8768 12.8675 0)
(50.0539 13.1675 4.65025e-19)
(50.2551 13.4789 -1.59263e-18)
(50.4459 13.7826 0)
(50.7259 14.0999 -1.04649e-18)
(50.9415 14.3418 1.47837e-18)
(50.9672 14.4119 -1.74196e-18)
(50.6733 14.4571 1.05378e-18)
(49.2767 14.1238 -1.2337e-18)
(45.0455 12.9327 3.12461e-18)
(35.525 10.1216 -2.74452e-18)
(18.6728 4.99621 1.77013e-18)
(3.30569 0.948859 -3.93725e-18)
(-1.65145 0.328122 4.67239e-18)
(-1.83187 0.0830973 -3.02242e-18)
(40.1605 -0.196525 -2.36649e-19)
(42.8594 -0.285344 1.84289e-20)
(43.2034 -0.0600683 0)
(43.2897 0.0241943 -1.64847e-19)
(43.435 0.184157 -4.24804e-19)
(43.6401 0.202053 1.43271e-20)
(43.8814 0.327705 0)
(44.0997 0.468984 0)
(44.3429 0.652618 -2.56825e-20)
(44.5972 0.825354 2.86096e-20)
(44.9123 1.08707 -5.86384e-19)
(45.1938 1.24498 3.79851e-19)
(45.4793 1.53587 3.85663e-19)
(45.8074 1.84591 -5.04225e-19)
(46.1114 2.13363 5.4996e-19)
(46.4697 2.47731 8.91426e-20)
(46.8344 2.85186 -9.58217e-19)
(47.1264 3.26519 -1.48335e-18)
(47.4102 3.68188 0)
(47.7204 4.17252 7.1462e-19)
(48.0023 4.68391 8.40945e-19)
(48.2591 5.23292 0)
(48.5216 5.80159 -1.14936e-18)
(48.7588 6.38441 0)
(48.9715 6.97617 0)
(49.155 7.5685 8.08902e-19)
(49.3159 8.16138 5.32401e-19)
(49.518 8.79082 1.19857e-18)
(49.7257 9.45192 0)
(49.7951 10.0304 0)
(49.8015 10.483 3.84273e-19)
(49.8703 10.9583 4.75441e-19)
(49.9691 11.4314 1.68527e-18)
(50.0774 11.8507 1.45239e-20)
(50.1781 12.2366 1.76021e-20)
(50.2986 12.5421 -1.64727e-18)
(50.4542 12.9113 -2.54093e-20)
(50.6099 13.232 2.13649e-18)
(50.8334 13.5179 1.24393e-18)
(51.0506 13.8041 6.65316e-19)
(51.1023 13.9243 1.57605e-18)
(50.9214 14.0143 4.41774e-20)
(49.9344 13.8879 -2.11042e-18)
(46.7461 13.0612 -1.21564e-18)
(39.4538 11.0141 -3.4452e-18)
(25.6958 6.98508 3.86294e-18)
(7.42213 1.89594 -1.72219e-18)
(-0.384325 0.555249 0)
(-2.53667 0.301332 0)
(-1.73847 0.181576 5.93838e-19)
(39.6281 -0.565423 7.25682e-19)
(42.9535 -0.532003 2.91678e-19)
(43.4062 -0.254977 -3.18577e-19)
(43.4156 -0.208333 1.16233e-20)
(43.51 -0.00702677 8.43407e-19)
(43.7302 -0.00169406 -1.51724e-20)
(44.0025 0.0766481 0)
(44.2659 0.173356 -7.18092e-19)
(44.5267 0.275896 -2.73692e-20)
(44.845 0.468309 -2.35245e-21)
(45.1051 0.628503 1.24347e-18)
(45.447 0.887056 -6.53476e-19)
(45.8197 1.08058 3.97099e-21)
(46.1753 1.36048 4.39913e-19)
(46.5932 1.7114 0)
(46.946 2.07256 0)
(47.3084 2.48003 7.40792e-19)
(47.7261 2.94253 1.14725e-18)
(48.1244 3.45988 0)
(48.4738 3.97779 -7.12352e-19)
(48.8153 4.53695 -8.38115e-19)
(49.1825 5.11735 -2.63585e-19)
(49.4924 5.73177 1.80511e-19)
(49.7302 6.36888 1.10897e-18)
(49.9334 7.01958 3.98067e-19)
(50.0945 7.66558 4.73383e-19)
(50.2146 8.29937 -1.55456e-18)
(50.2714 8.88632 -1.17362e-18)
(50.232 9.37714 1.45857e-18)
(50.27 9.86067 -1.65308e-18)
(50.3802 10.4274 0)
(50.4544 10.9047 0)
(50.4756 11.2998 4.23702e-20)
(50.5009 11.6793 -1.30253e-18)
(50.5938 12.024 1.52176e-18)
(50.71 12.4228 2.58494e-18)
(50.8231 12.7014 -9.58506e-19)
(50.9936 12.961 -2.24033e-18)
(51.1705 13.278 -2.48256e-18)
(51.2523 13.4821 -1.43332e-18)
(51.1435 13.5999 -3.52794e-20)
(50.4098 13.5609 1.84468e-18)
(48.0495 13.0641 0)
(42.3647 11.5466 1.20455e-18)
(30.735 8.28946 1.36052e-18)
(11.9825 3.09354 1.51498e-18)
(1.68521 0.874339 5.08336e-18)
(-2.04777 0.446108 -1.89287e-18)
(-2.70033 0.340735 0)
(-1.49581 0.220491 0)
(38.6216 -0.78659 8.28786e-21)
(43.1674 -0.663374 -5.536e-19)
(43.5564 -0.448512 3.28422e-19)
(43.5486 -0.424129 -7.54666e-19)
(43.6058 -0.194872 -4.58102e-19)
(43.7476 -0.14583 -9.98106e-22)
(43.986 -0.0770622 1.86313e-20)
(44.2448 -0.0811001 6.69103e-19)
(44.562 0.0287765 5.29092e-20)
(44.8706 0.1252 6.86887e-20)
(45.2553 0.312961 -6.13783e-19)
(45.5967 0.44352 -9.2291e-20)
(45.958 0.694459 -9.41737e-19)
(46.3383 0.927421 -1.13629e-18)
(46.7204 1.182 1.7354e-19)
(47.1922 1.48874 -1.93575e-19)
(47.626 1.85167 0)
(48.0149 2.24041 -1.18331e-18)
(48.4096 2.67706 0)
(48.8021 3.17739 0)
(49.1828 3.7269 0)
(49.5027 4.31924 -5.74452e-19)
(49.8203 4.94315 1.8958e-18)
(50.1135 5.59826 -1.4571e-18)
(50.3729 6.26376 0)
(50.5888 6.93565 -5.14701e-19)
(50.7602 7.60887 -1.85958e-18)
(50.9173 8.28919 -2.77769e-18)
(51.1042 9.01419 -2.20758e-18)
(51.1573 9.69527 1.57093e-18)
(51.0978 10.2017 -1.9207e-18)
(51.0341 10.6754 1.07688e-18)
(50.9989 11.1499 2.49835e-18)
(51.0154 11.554 0)
(51.0359 11.9378 1.63014e-18)
(51.0651 12.1756 -3.46335e-18)
(51.1631 12.4609 -3.86812e-20)
(51.2799 12.7824 2.18602e-18)
(51.4131 13.0422 1.24552e-18)
(51.3777 13.1765 0)
(50.8196 13.1744 1.63603e-18)
(49.0823 12.9519 -1.89452e-18)
(44.4697 11.8274 4.24956e-18)
(34.2792 9.08301 0)
(16.8806 4.42991 -5.33894e-18)
(3.80034 1.44397 1.47948e-18)
(-1.23846 0.86046 -1.66401e-18)
(-2.75612 0.642632 -1.85957e-18)
(-2.60381 0.512393 4.13704e-18)
(-1.24348 0.25129 1.5333e-21)
(37.7184 -0.699647 -4.99162e-19)
(43.4268 -0.612652 5.68993e-19)
(43.5619 -0.584466 -6.46622e-19)
(43.6626 -0.618326 1.50841e-18)
(43.7221 -0.470851 -9.13501e-19)
(43.8374 -0.427758 6.59397e-20)
(43.9992 -0.325225 -6.62029e-19)
(44.3182 -0.314834 0)
(44.6305 -0.343393 -9.01815e-19)
(44.9614 -0.23625 1.15625e-18)
(45.3016 -0.165387 6.87185e-21)
(45.7195 -0.0177545 -9.51214e-20)
(46.1187 0.130186 9.38589e-19)
(46.5934 0.37011 -4.14401e-20)
(47.0743 0.652459 1.23979e-18)
(47.506 0.9822 2.03112e-19)
(47.9898 1.3383 0)
(48.5112 1.80228 1.17801e-18)
(48.9951 2.29103 2.98671e-18)