/*--------------------------------*- C++ -*----------------------------------*\
| =========                 |                                                 |
| \\      /  F ield         | OpenFOAM: The Open Source CFD Toolbox           |
|  \\    /   O peration     | Version:  v1912                                 |
|   \\  /    A nd           | Website:  www.openfoam.com                      |
|    \\/     M anipulation  |                                                 |
\*---------------------------------------------------------------------------*/
FoamFile
{
    version     2.0;
    format      ascii;
    class       surfaceScalarField;
    location    "0.4";
    object      phi;
}
// * * * * * * * * * * * * * * * * * * * * * * * * * * * * * * * * * * * * * //

dimensions      [0 3 -1 0 0 0 0];
oriented        oriented;


internalField   nonuniform List<scalar> 
13060
(
0.00624636
0.98791
-0.994157
0.00885276
0.94413
-0.946736
0.0111958
0.897697
-0.90004
0.0135172
0.853007
-0.855328
0.0154905
0.8105
-0.812473
0.017408
0.769944
-0.771861
0.0193236
0.731229
-0.733145
0.0210087
0.694742
-0.696427
0.0223094
0.660216
-0.661516
0.0232906
0.627422
-0.628403
0.0239773
0.596378
-0.597065
0.0244491
0.566874
-0.567346
0.024701
0.538931
-0.539183
0.0247505
0.512455
-0.512505
0.0246363
0.487232
-0.487118
0.0244328
0.463247
-0.463044
0.024236
0.440282
-0.440085
0.0241515
0.418351
-0.418266
0.0242391
0.397593
-0.397681
0.0242901
0.377901
-0.377952
0.024187
0.359186
-0.359083
0.0239739
0.341245
-0.341032
0.0235134
0.324308
-0.323847
0.0228061
0.308225
-0.307517
0.0221048
0.29264
-0.291939
0.0216105
0.277847
-0.277353
0.0211644
0.264047
-0.263601
0.0206129
0.250959
-0.250407
0.0199459
0.238512
-0.237845
0.0191893
0.226669
-0.225913
0.0184828
0.215584
-0.214878
0.0177269
0.205247
-0.204491
0.016911
0.195436
-0.19462
0.0160337
0.186148
-0.18527
0.0150825
0.177391
-0.17644
0.0139891
0.169233
-0.16814
0.0127786
0.16152
-0.160309
0.0115469
0.154231
-0.153
0.0103114
0.147477
-0.146241
0.00902169
0.14116
-0.13987
0.0077046
0.135183
-0.133866
0.00640125
0.129605
-0.128301
0.00508818
0.124335
-0.123022
0.00376193
0.119416
-0.11809
0.0024248
0.114711
-0.113374
0.00123794
0.110304
-0.109117
0.000149707
0.105818
-0.104729
-0.00109396
0.102516
-0.101273
-0.00144283
0.0946769
-0.094328
0.0673434
-0.0687862
0.00635375
0.981557
0.00844813
0.942035
0.0105383
0.895607
0.0123815
0.851163
0.0140861
0.808795
0.0158797
0.76815
0.0172278
0.729881
0.0181495
0.69382
0.0187056
0.65966
0.0190628
0.627065
0.0192587
0.596182
0.0193954
0.566737
0.0193864
0.53894
0.0193136
0.512528
0.0192219
0.487323
0.0191477
0.463321
0.0190145
0.440415
0.0186781
0.418687
0.0182761
0.397995
0.0179614
0.378215
0.0176876
0.35946
0.0175579
0.341375
0.0175998
0.324266
0.0176945
0.30813
0.0175196
0.292815
0.0170618
0.278305
0.0164884
0.264621
0.0159229
0.251524
0.0153331
0.239102
0.0146106
0.227392
0.0138139
0.216381
0.0129657
0.206095
0.0120566
0.196345
0.0110645
0.18714
0.0100336
0.178422
0.00903906
0.170228
0.00805089
0.162508
0.00700904
0.155273
0.00594025
0.148546
0.00487954
0.14222
0.00380015
0.136262
0.00277675
0.130628
0.00178737
0.125324
0.000888208
0.120316
5.90754e-05
0.11554
-0.000828656
0.111192
-0.0017557
0.106745
-0.00223677
0.102997
-0.00202778
0.0944679
0.0653156
0.00659013
0.974966
0.00872355
0.939902
0.010292
0.894038
0.011603
0.849852
0.012724
0.807674
0.0137357
0.767138
0.014533
0.729084
0.0151256
0.693227
0.0155336
0.659252
0.0157566
0.626842
0.0158189
0.59612
0.0156727
0.566883
0.0154313
0.539181
0.0151721
0.512787
0.014831
0.487665
0.0144637
0.463689
0.0142299
0.440649
0.0141845
0.418733
0.0141571
0.398023
0.0140201
0.378352
0.0137496
0.35973
0.0132164
0.341908
0.0124898
0.324992
0.0117634
0.308856
0.0112234
0.293355
0.0108183
0.27871
0.0104219
0.265017
0.00988918
0.252057
0.00923163
0.239759
0.00859285
0.22803
0.00797051
0.217003
0.00730591
0.20676
0.00659355
0.197058
0.00589095
0.187842
0.00512676
0.179186
0.0042882
0.171066
0.00340249
0.163394
0.00253441
0.156141
0.00169106
0.149389
0.000861408
0.14305
8.21615e-05
0.137042
-0.000727742
0.131438
-0.00148216
0.126079
-0.00218239
0.121016
-0.00282462
0.116182
-0.00329908
0.111666
-0.00367967
0.107125
-0.00347739
0.102795
-0.00258337
0.0935739
0.0627322
0.00604862
0.968918
0.00753225
0.938418
0.00866882
0.892902
0.00970682
0.848814
0.0108543
0.806527
0.0115317
0.766461
0.0116774
0.728938
0.0115802
0.693325
0.0114171
0.659415
0.0110854
0.627173
0.0108052
0.5964
0.0104379
0.567251
0.0100483
0.539571
0.00970429
0.513131
0.00947439
0.487894
0.00925684
0.463906
0.00886252
0.441043
0.00836343
0.419232
0.00791607
0.39847
0.00758658
0.378682
0.0073656
0.359951
0.00728537
0.341988
0.00736782
0.32491
0.0072984
0.308926
0.00694022
0.293713
0.00637356
0.279277
0.00582866
0.265562
0.00533244
0.252553
0.00480075
0.240291
0.00413268
0.228698
0.0034134
0.217722
0.00269626
0.207477
0.00191446
0.197839
0.0010778
0.188679
0.00028223
0.179982
-0.000456837
0.171805
-0.00115705
0.164094
-0.00186828
0.156853
-0.00256321
0.150084
-0.00320725
0.143694
-0.00381698
0.137651
-0.00430917
0.13193
-0.0047066
0.126476
-0.00499227
0.121301
-0.00515169
0.116342
-0.00517523
0.11169
-0.00514016
0.10709
-0.00460658
0.102262
-0.00317726
0.0921445
0.059555
0.0058923
0.963026
0.00700908
0.937301
0.00774144
0.892169
0.00821791
0.848338
0.00849489
0.80625
0.00844313
0.766513
0.00831356
0.729068
0.00816837
0.69347
0.00795376
0.659629
0.00763217
0.627495
0.00719094
0.596841
0.0067335
0.567708
0.00631299
0.539991
0.00587347
0.513571
0.00534635
0.488422
0.00492026
0.464332
0.00471121
0.441252
0.00458037
0.419363
0.00436564
0.398685
0.00407166
0.378976
0.0036146
0.360408
0.00289938
0.342703
0.0020232
0.325786
0.00133461
0.309614
0.000842859
0.294205
0.000406603
0.279713
-7.53688e-05
0.266044
-0.000605966
0.253084
-0.00116342
0.240848
-0.00168888
0.229224
-0.00222805
0.218261
-0.00278806
0.208037
-0.00333487
0.198386
-0.00386238
0.189206
-0.00443856
0.180558
-0.00506889
0.172436
-0.00567833
0.164703
-0.00619913
0.157373
-0.00665631
0.150541
-0.00707039
0.144108
-0.00738177
0.137963
-0.00759706
0.132145
-0.00772695
0.126606
-0.00774455
0.121319
-0.00761883
0.116216
-0.0073033
0.111374
-0.00688274
0.10667
-0.00588441
0.101263
-0.0038433
0.0901034
0.0557117
0.00514002
0.957886
0.0054113
0.93703
0.00558138
0.891999
0.0057869
0.848132
0.00576595
0.806271
0.00536324
0.766915
0.00472725
0.729704
0.00398795
0.694209
0.00326194
0.660355
0.00271777
0.628039
0.00215211
0.597407
0.00155943
0.568301
0.00102724
0.540523
0.000650428
0.513948
0.000357054
0.488715
-0.000109817
0.464799
-0.000779263
0.441922
-0.00145512
0.420038
-0.00192869
0.399158
-0.00228362
0.379331
-0.00236988
0.360495
-0.002274
0.342608
-0.00226467
0.325777
-0.00253395
0.309884
-0.00305756
0.294729
-0.0036677
0.280323
-0.00420211
0.266578
-0.00471862
0.2536
-0.00529922
0.241429
-0.00594319
0.229868
-0.00656087
0.218879
-0.00713901
0.208615
-0.00775606
0.199003
-0.00840151
0.189852
-0.00896171
0.181118
-0.00941277
0.172887
-0.00980393
0.165094
-0.0101678
0.157737
-0.0104579
0.150831
-0.010634
0.144284
-0.0107188
0.138047
-0.0106862
0.132113
-0.0105049
0.126425
-0.0101822
0.120996
-0.00972672
0.11576
-0.00912946
0.110777
-0.00844241
0.105983
-0.00711545
0.0999363
-0.00446745
0.0874554
0.0512442
0.0044394
0.953446
0.00420325
0.937266
0.00378784
0.892415
0.00318157
0.848739
0.00244945
0.807003
0.00173486
0.76763
0.001074
0.730365
0.000480512
0.694803
-0.000178169
0.661014
-0.000905818
0.628767
-0.00153586
0.598037
-0.00207678
0.568842
-0.00259718
0.541044
-0.00322017
0.514571
-0.00378481
0.48928
-0.00413669
0.465151
-0.00431689
0.442102
-0.00458589
0.420307
-0.00495849
0.399531
-0.00551463
0.379887
-0.00628811
0.361268
-0.00727822
0.343598
-0.00807205
0.326571
-0.00859369
0.310405
-0.00901446
0.29515
-0.00945429
0.280763
-0.00993391
0.267058
-0.010428
0.254094
-0.0108519
0.241853
-0.0112747
0.230291
-0.0117451
0.21935
-0.0122144
0.209084
-0.0125895
0.199378
-0.0128785
0.190141
-0.0131677
0.181408
-0.0134861
0.173205
-0.0137599
0.165368
-0.0139148
0.157892
-0.0139619
0.150878
-0.0139246
0.144247
-0.013769
0.137892
-0.0134901
0.131834
-0.013106
0.126041
-0.0125978
0.120488
-0.0119804
0.115143
-0.0111965
0.109993
-0.0101535
0.10494
-0.00836914
0.098152
-0.0050646
0.0841509
0.0461796
0.00369131
0.949755
0.00266419
0.938293
0.00149039
0.893588
0.000607024
0.849622
-0.000574547
0.808184
-0.00173966
0.768795
-0.00287281
0.731498
-0.0039429
0.695873
-0.00487175
0.661943
-0.00579012
0.629685
-0.00665535
0.598902
-0.00736436
0.569551
-0.00795575
0.541635
-0.00839057
0.515006
-0.00886691
0.489756
-0.00952731
0.465811
-0.010263
0.442837
-0.0108607
0.420905
-0.0112845
0.399955
-0.0114472
0.38005
-0.0113987
0.36122
-0.0113203
0.343519
-0.0115008
0.326751
-0.011892
0.310796
-0.0123871
0.295645
-0.0129082
0.281284
-0.0134071
0.267557
-0.0138972
0.254585
-0.0144672
0.242423
-0.0150012
0.230825
-0.0154517
0.2198
-0.0158383
0.209471
-0.0162597
0.1998
-0.016685
0.190566
-0.0169921
0.181715
-0.0171418
0.173355
-0.0172058
0.165432
-0.0172284
0.157915
-0.017157
0.150807
-0.0169417
0.144032
-0.0166056
0.137556
-0.0161471
0.131375
-0.0155477
0.125441
-0.0148188
0.119759
-0.013969
0.114293
-0.0130983
0.109122
-0.0117238
0.103565
-0.00958275
0.0960109
-0.00564138
0.0802095
0.0405383
0.00300036
0.946754
0.00130811
0.939986
-0.000419829
0.895316
-0.00194775
0.85115
-0.00346257
0.809699
-0.00480863
0.770141
-0.00596442
0.732654
-0.006985
0.696893
-0.00796496
0.662923
-0.0088527
0.630573
-0.00963606
0.599686
-0.010351
0.570265
-0.0110877
0.542372
-0.0117915
0.515709
-0.012258
0.490222
-0.0125019
0.466055
-0.0127417
0.443077
-0.0131449
0.421308
-0.0137497
0.40056
-0.0145462
0.380846
-0.0155763
0.36225
-0.0164172
0.34436
-0.0170198
0.327354
-0.0174984
0.311275
-0.0178943
0.296041
-0.0182628
0.281653
-0.0186182
0.267912
-0.0189942
0.254961
-0.019307
0.242736
-0.0196312
0.231149
-0.0200025
0.220171
-0.0203345
0.209803
-0.0205094
0.199975
-0.0205671
0.190624
-0.0206026
0.18175
-0.0206241
0.173376
-0.0205728
0.165381
-0.020391
0.157733
-0.0200959
0.150512
-0.0197183
0.143654
-0.0192324
0.13707
-0.0186119
0.130755
-0.0178827
0.124712
-0.0170432
0.11892
-0.0160903
0.11334
-0.0150472
0.108079
-0.0133829
0.101901
-0.0108099
0.0934379
-0.0061471
0.0755467
0.0343912
0.00203192
0.944723
-0.00020913
0.942227
-0.00229055
0.897398
-0.00424727
0.853107
-0.00606569
0.811517
-0.00775542
0.771831
-0.00929593
0.734194
-0.0106078
0.698205
-0.0117992
0.664114
-0.0129313
0.631705
-0.0139661
0.60072
-0.0148627
0.571162
-0.0155803
0.54309
-0.0162673
0.516396
-0.0169969
0.490952
-0.0177908
0.466849
-0.0184518
0.443738
-0.018921
0.421778
-0.0192103
0.400849
-0.0192541
0.38089
-0.0191735
0.362169
-0.0192464
0.344433
-0.019547
0.327654
-0.0199625
0.311691
-0.0204304
0.296508
-0.0208893
0.282112
-0.0213215
0.268344
-0.0217865
0.255426
-0.0222304
0.24318
-0.0226015
0.23152
-0.0228683
0.220438
-0.0230708
0.210005
-0.0233112
0.200215
-0.0235408
0.190853
-0.0236442
0.181854
-0.0235799
0.173312
-0.0233964
0.165198
-0.0231432
0.15748
-0.0227973
0.150166
-0.0223141
0.143171
-0.0216958
0.136452
-0.020977
0.130036
-0.020151
0.123886
-0.0192165
0.117985
-0.0181956
0.112319
-0.0169409
0.106825
-0.015116
0.100076
-0.0120846
0.0904065
-0.00667549
0.0701376
0.0277157
0.00129732
0.943425
-0.00148382
0.945008
-0.00398157
0.899896
-0.00624837
0.855373
-0.0081758
0.813445
-0.00990138
0.773557
-0.0113524
0.735645
-0.0126923
0.699545
-0.0138588
0.665281
-0.014881
0.632727
-0.0157918
0.601631
-0.0166721
0.572042
-0.0175645
0.543982
-0.0183138
0.517146
-0.0188441
0.491482
-0.0192424
0.467248
-0.0197527
0.444249
-0.0203876
0.422412
-0.0211444
0.401606
-0.0220713
0.381817
-0.0229703
0.363068
-0.0236994
0.345162
-0.0242062
0.328161
-0.0246054
0.31209
-0.0249658
0.296869
-0.0252979
0.282444
-0.0256528
0.268699
-0.0259324
0.255705
-0.0261716
0.243419
-0.026398
0.231746
-0.0266692
0.220709
-0.026875
0.210211
-0.02689
0.20023
-0.0267744
0.190738
-0.0266146
0.181694
-0.0264282
0.173126
-0.0261834
0.164953
-0.0258236
0.15712
-0.0253348
0.149677
-0.0247491
0.142585
-0.024088
0.135791
-0.0233071
0.129255
-0.0223979
0.122977
-0.021386
0.116973
-0.0203938
0.111327
-0.0189299
0.105361
-0.0168235
0.0979694
-0.013217
0.0868
-0.00707049
0.0639911
0.0206452
0.000774686
0.942651
-0.00235773
0.94814
-0.00498855
0.902526
-0.00757644
0.857961
-0.00984233
0.815711
-0.0118421
0.775556
-0.0136159
0.737419
-0.0152146
0.701144
-0.0166635
0.66673
-0.0180005
0.634064
-0.0191902
0.602821
-0.0202163
0.573069
-0.021089
0.544855
-0.0219658
0.518023
-0.0229038
0.49242
-0.0236953
0.468039
-0.0242712
0.444825
-0.0246643
0.422806
-0.0249024
0.401844
-0.0250208
0.381935
-0.0250538
0.363101
-0.0252707
0.345379
-0.0256465
0.328537
-0.0260796
0.312523
-0.0265206
0.29731
-0.0269224
0.282846
-0.0273282
0.269105
-0.0277356
0.256113
-0.0281057
0.243789
-0.0284013
0.232042
-0.0285761
0.220884
-0.0287007
0.210336
-0.0288598
0.200389
-0.0289907
0.190869
-0.0289998
0.181703
-0.0288515
0.172977
-0.0285612
0.164662
-0.0281779
0.156737
-0.0277188
0.149218
-0.0271467
0.142013
-0.026414
0.135058
-0.0255744
0.128415
-0.0246909
0.122093
-0.0237513
0.116034
-0.0227053
0.110281
-0.0209666
0.103622
-0.0184822
0.095485
-0.013924
0.0822418
-0.00660223
0.0566693
0.014043
0.000582063
0.942068
-0.00284876
0.951571
-0.00582341
0.905501
-0.00858588
0.860724
-0.0108005
0.817925
-0.0128044
0.77756
-0.0145779
0.739192
-0.0161104
0.702676
-0.017476
0.668095
-0.0186879
0.635276
-0.019823
0.603956
-0.0209087
0.574154
-0.0218546
0.545801
-0.0226155
0.518783
-0.0232481
0.493053
-0.0239214
0.468712
-0.0246851
0.445588
-0.0254949
0.423615
-0.0263381
0.402687
-0.027228
0.382825
-0.0280685
0.363942
-0.0286514
0.345962
-0.0290497
0.328935
-0.0294142
0.312887
-0.029797
0.297693
-0.0301738
0.283223
-0.0305135
0.269445
-0.0308294
0.256429
-0.0310889
0.244048
-0.0313421
0.232295
-0.031624
0.221166
-0.0317914
0.210503
-0.0317744
0.200372
-0.0316451
0.190739
-0.0314539
0.181512
-0.0312147
0.172738
-0.0309329
0.164381
-0.0305664
0.15637
-0.0300659
0.148717
-0.0294401
0.141387
-0.0287567
0.134374
-0.0279828
0.127642
-0.0270653
0.121176
-0.0262052
0.115174
-0.0248668
0.108943
-0.0229989
0.101754
-0.0198207
0.0923067
-0.0139549
0.076376
-0.00522757
0.047942
0.00881539
0.000438895
0.94163
-0.00285937
0.954869
-0.00568113
0.908323
-0.00858074
0.863623
-0.011098
0.820443
-0.0134838
0.779946
-0.0155671
0.741276
-0.0174778
0.704587
-0.0192219
0.669839
-0.0207925
0.636847
-0.0222205
0.605384
-0.0234365
0.57537
-0.0245605
0.546924
-0.0256663
0.519889
-0.0266281
0.494015
-0.0273167
0.469401
-0.0278212
0.446093
-0.0281682
0.423962
-0.0284251
0.402944
-0.0285679
0.382968
-0.0287527
0.364127
-0.0291391
0.346348
-0.0296107
0.329407
-0.030047
0.313324
-0.0304601
0.298106
-0.0308898
0.283652
-0.0313201
0.269875
-0.0317266
0.256835
-0.0321178
0.24444
-0.0324369
0.232614
-0.0326674
0.221396
-0.032896
0.210732
-0.0331312
0.200607
-0.0333
0.190908
-0.0333677
0.181579
-0.033315
0.172685
-0.0331123
0.164178
-0.032782
0.15604
-0.0323726
0.148308
-0.0318813
0.140896
-0.0312316
0.133725
-0.0304396
0.12685
-0.0296619
0.120398
-0.028783
0.114295
-0.0272899
0.10745
-0.0249933
0.0994575
-0.0208614
0.0881748
-0.0135707
0.0690853
-0.00364105
0.0380124
0.00517434
0.000805185
0.940824
-0.00262097
0.958295
-0.00579585
0.911498
-0.00859876
0.866426
-0.0109641
0.822808
-0.0132534
0.782235
-0.0152672
0.74329
-0.0171413
0.706461
-0.0188372
0.671535
-0.0203092
0.638319
-0.0216887
0.606763
-0.0229551
0.576637
-0.0240224
0.547992
-0.0249737
0.520841
-0.0259253
0.494966
-0.0268486
0.470324
-0.0277679
0.447012
-0.0286046
0.424799
-0.0294447
0.403784
-0.0302891
0.383813
-0.0309332
0.364771
-0.0313587
0.346774
-0.0317619
0.32981
-0.0321815
0.313743
-0.0325828
0.298507
-0.0329801
0.28405
-0.0334083
0.270303
-0.0338263
0.257253
-0.0342374
0.244851
-0.034686
0.233063
-0.0351046
0.221815
-0.0353678
0.210995
-0.0355072
0.200747
-0.0355892
0.19099
-0.0355809
0.181571
-0.0354756
0.17258
-0.0353222
0.164025
-0.0351178
0.155835
-0.0347914
0.147982
-0.0343101
0.140415
-0.0337343
0.133149
-0.0331461
0.126261
-0.0325955
0.119848
-0.0314391
0.113138
-0.0295786
0.105589
-0.0266086
0.0964875
-0.0214613
0.0830275
-0.0131487
0.0607727
-0.00219325
0.0270569
0.00298109
0.00098812
0.939836
-0.00175358
0.961037
-0.00463333
0.914377
-0.00756061
0.869354
-0.0102522
0.8255
-0.0129023
0.784885
-0.0152781
0.745665
-0.017516
0.708699
-0.0195588
0.673578
-0.0214632
0.640223
-0.0232055
0.608506
-0.0247611
0.578192
-0.0261334
0.549364
-0.027288
0.521995
-0.0282792
0.495957
-0.0290593
0.471104
-0.0296247
0.447577
-0.0300303
0.425205
-0.0302395
0.403993
-0.0304477
0.384021
-0.0308169
0.36514
-0.0312449
0.347202
-0.0316821
0.330247
-0.0321117
0.314173
-0.0325725
0.298968
-0.0330624
0.28454
-0.0335768
0.270818
-0.0341095
0.257786
-0.0346153
0.245357
-0.0350666
0.233514
-0.0355292
0.222278
-0.0360715
0.211537
-0.03658
0.201255
-0.0369495
0.19136
-0.0372385
0.18186
-0.0374675
0.172809
-0.0375467
0.164104
-0.0374457
0.155734
-0.0372356
0.147771
-0.0369539
0.140133
-0.0366159
0.132811
-0.036198
0.125843
-0.0355596
0.119209
-0.0342734
0.111852
-0.0324461
0.103762
-0.0289467
0.0929882
-0.0221378
0.0762186
-0.0113379
0.0499728
-0.00111795
0.016837
0.00186314
0.00187854
0.937958
-0.001054
0.96397
-0.00396955
0.917293
-0.00658999
0.871974
-0.00914848
0.828058
-0.0116584
0.787395
-0.0139552
0.747962
-0.016174
0.710918
-0.0181721
0.675576
-0.0199915
0.642042
-0.0216932
0.610207
-0.0232734
0.579772
-0.0247193
0.55081
-0.0260146
0.52329
-0.0272102
0.497153
-0.0283564
0.47225
-0.0293812
0.448602
-0.0303297
0.426153
-0.0311545
0.404818
-0.0317583
0.384625
-0.0321997
0.365581
-0.0325908
0.347593
-0.0329836
0.33064
-0.0333698
0.314559
-0.0337791
0.299377
-0.0342477
0.285008
-0.0347618
0.271332
-0.0353618
0.258386
-0.0360755
0.24607
-0.0368697
0.234309
-0.0375721
0.22298
-0.038091
0.212056
-0.0385485
0.201713
-0.0390302
0.191841
-0.0394225
0.182252
-0.0396544
0.173041
-0.0398153
0.164265
-0.0399666
0.155886
-0.0400133
0.147818
-0.0399257
0.140046
-0.0397124
0.132598
-0.0395326
0.125664
-0.0387928
0.118469
-0.0375184
0.110578
-0.0350734
0.101317
-0.0302879
0.0882027
-0.0215319
0.0674626
-0.00810567
0.0365466
-0.000966948
0.00969828
0.000896195
0.00223717
0.935721
0.00048232
0.965725
-0.00204687
0.919822
-0.00475932
0.874686
-0.00753776
0.830837
-0.0102657
0.790123
-0.0129157
0.750612
-0.0156277
0.71363
-0.0181357
0.678084
-0.0205164
0.644423
-0.0226861
0.612377
-0.0246388
0.581725
-0.0263151
0.552486
-0.0277412
0.524716
-0.0288911
0.498303
-0.0297917
0.473151
-0.0304507
0.449261
-0.0308886
0.426591
-0.0312279
0.405157
-0.0315803
0.384977
-0.0319246
0.365925
-0.0322268
0.347895
-0.0325514
0.330965
-0.0329179
0.314925
-0.0333652
0.299824
-0.0339281
0.285571
-0.0345856
0.271989
-0.0352622
0.259062
-0.0359336
0.246742
-0.0366302
0.235005
-0.0374834
0.223833
-0.0385478
0.213121
-0.0395989
0.202764
-0.0404261
0.192668
-0.041112
0.182938
-0.04178
0.173709
-0.0423242
0.164809
-0.0426261
0.156188
-0.0427944
0.147986
-0.0429067
0.140158
-0.0430992
0.13279
-0.0429645
0.125529
-0.0421805
0.117685
-0.040682
0.109079
-0.0373109
0.0979456
-0.0300019
0.0808937
-0.0177548
0.0552154
-0.00432081
0.0231126
-0.000385882
0.00576335
0.000510316
0.00411999
0.931601
0.00201484
0.96783
-0.000773394
0.92261
-0.00319084
0.877104
-0.00566358
0.833309
-0.00817344
0.792633
-0.0106814
0.75312
-0.013219
0.716167
-0.0157241
0.680589
-0.0181676
0.646867
-0.0204588
0.614668
-0.0226439
0.58391
-0.0246569
0.554499
-0.0264593
0.526519
-0.0280802
0.499924
-0.0295093
0.47458
-0.0307363
0.450488
-0.0317313
0.427586
-0.0323613
0.405787
-0.0327569
0.385373
-0.0330936
0.366262
-0.0333482
0.34815
-0.0335689
0.331185
-0.0338113
0.315168
-0.0341013
0.300114
-0.0344817
0.285952
-0.0350552
0.272563
-0.0358841
0.259891
-0.0369702
0.247828
-0.0382175
0.236252
-0.0393936
0.225009
-0.0403603
0.214087
-0.0412488
0.203652
-0.0422323
0.193652
-0.0432318
0.183938
-0.0440255
0.174503
-0.0446612
0.165445
-0.0453253
0.156852
-0.0459247
0.148586
-0.0464211
0.140654
-0.0467902
0.133159
-0.046439
0.125178
-0.0455397
0.116786
-0.0431603
0.1067
-0.0377277
0.0925131
-0.0277258
0.0708918
-0.012161
0.0396507
-0.00234854
0.0133001
-9.46056e-05
0.00350942
0.000415711
0.00448052
0.92712
0.00378149
0.968529
0.0019779
0.924414
-0.000541364
0.879623
-0.00330657
0.836074
-0.00607626
0.795403
-0.00915072
0.756195
-0.0122952
0.719312
-0.0153096
0.683604
-0.0183037
0.649861
-0.0211039
0.617468
-0.0236479
0.586454
-0.0259353
0.556787
-0.027839
0.528423
-0.0293944
0.501479
-0.0306002
0.475786
-0.0314587
0.451347
-0.0321124
0.42824
-0.0326078
0.406283
-0.0328884
0.385653
-0.0330325
0.366406
-0.0331592
0.348277
-0.0332572
0.331283
-0.0334303
0.315341
-0.0337472
0.300431
-0.0342344
0.286439
-0.0348393
0.273168
-0.0355597
0.260612
-0.0364059
0.248674
-0.0373795
0.237226
-0.0386409
0.226271
-0.040298
0.215744
-0.0421178
0.205472
-0.0437531
0.195287
-0.045082
0.185267
-0.046321
0.175742
-0.0474962
0.16662
-0.0483753
0.157731
-0.0490671
0.149278
-0.0498755
0.141463
-0.0501149
0.133399
-0.0497773
0.12484
-0.0483811
0.11539
-0.0446275
0.102946
-0.0361894
0.084075
-0.0215857
0.056288
-0.00623395
0.024299
-0.000954657
0.00802079
0.000110002
0.00244477
0.000525714
0.005753
0.921367
0.0048454
0.969436
0.00318474
0.926075
0.00131294
0.881495
-0.000906193
0.838294
-0.00335898
0.797856
-0.0060983
0.758934
-0.00906583
0.722279
-0.0122259
0.686764
-0.015397
0.653032
-0.0185386
0.62061
-0.0215657
0.589481
-0.0244104
0.559631
-0.0270132
0.531025
-0.0293094
0.503775
-0.0312937
0.47777
-0.0328592
0.452912
-0.0339015
0.429282
-0.0345238
0.406905
-0.0348176
0.385947
-0.0348273
0.366416
-0.0347025
0.348152
-0.0345192
0.3311
-0.0343414
0.315163
-0.0342479
0.300338
-0.0343865
0.286577
-0.0348516
0.273633
-0.0356846
0.261445
-0.0369278
0.249917
-0.0385964
0.238895
-0.0404125
0.228087
-0.0421057
0.217438
-0.0436597
0.207026
-0.0452284
0.196856
-0.0469822
0.18702
-0.0486021
0.177362
-0.0498809
0.167899
-0.0511145
0.158965
-0.0524709
0.150634
-0.0533624
0.142354
-0.053499
0.133535
-0.0529609
0.124302
-0.0504552
0.112884
-0.0434727
0.0959636
-0.0309563
0.0715585
-0.0127582
0.03809
-0.00268284
0.0142236
7.64668e-05
0.00526148
0.000294497
0.00222674
0.000820211
0.00577247
0.915595
0.00598664
0.969222
0.00518254
0.926879
0.00350108
0.883176
0.00125232
0.840542
-0.00142041
0.800528
-0.00465359
0.762167
-0.00806454
0.72569
-0.0116059
0.690305
-0.0152255
0.656651
-0.0187996
0.624184
-0.0222299
0.592912
-0.0253658
0.562767
-0.0281185
0.533778
-0.0303982
0.506055
-0.0322216
0.479594
-0.0336501
0.454341
-0.0347812
0.430413
-0.0355066
0.40763
-0.0357947
0.386235
-0.0357876
0.366409
-0.0355561
0.34792
-0.0352121
0.330756
-0.0348852
0.314836
-0.0346335
0.300086
-0.0345715
0.286515
-0.0348052
0.273866
-0.0354192
0.262059
-0.0363315
0.25083
-0.0374266
0.23999
-0.0389558
0.229616
-0.0410913
0.219573
-0.0436991
0.209634
-0.0464618
0.199619
-0.0488375
0.189396
-0.0508462
0.17937
-0.0527567
0.169809
-0.0544372
0.160645
-0.055817
0.152014
-0.0565845
0.143122
-0.0568142
0.133765
-0.0554077
0.122895
-0.0500408
0.107518
-0.0397524
0.0856752
-0.0209903
0.0527965
-0.00538621
0.0224859
-0.000135689
0.00897303
0.000911988
0.0042138
0.000501739
0.00263699
0.00132195
0.00679576
0.908799
0.0068982
0.96912
0.00620167
0.927575
0.0049217
0.884456
0.00343067
0.842033
0.00128671
0.802672
-0.00134935
0.764803
-0.00450767
0.728849
-0.00815738
0.693955
-0.0120101
0.660504
-0.0160249
0.628199
-0.0200813
0.596968
-0.0240638
0.56675
-0.0278262
0.537541
-0.0312037
0.509433
-0.0340398
0.48243
-0.0362019
0.456503
-0.0376842
0.431896
-0.0385691
0.408515
-0.038846
0.386512
-0.0385811
0.366144
-0.0379284
0.347268
-0.0370746
0.329902
-0.0362324
0.313994
-0.0355215
0.299375
-0.0350011
0.285995
-0.0347885
0.273654
-0.0349587
0.262229
-0.035869
0.25174
-0.03771
0.241831
-0.0400965
0.232002
-0.0426593
0.222136
-0.0452054
0.21218
-0.0476364
0.20205
-0.0502782
0.192038
-0.0530453
0.182137
-0.0553661
0.17213
-0.0574112
0.16269
-0.059047
0.153649
-0.0600068
0.144082
-0.0595369
0.133295
-0.0558692
0.119228
-0.0476614
0.0993097
-0.0299961
0.0680099
-0.0102028
0.0330032
-0.00161991
0.013903
0.000778148
0.00657497
0.00093871
0.00405324
0.000461499
0.0031142
0.00178345
0.00552213
0.903277
0.0066531
0.967989
0.00692414
0.927304
0.00608627
0.885294
0.00455356
0.843566
0.00224621
0.80498
-0.00058913
0.767638
-0.00387306
0.732132
-0.00759999
0.697682
-0.0116954
0.6646
-0.0160244
0.632528
-0.0204123
0.601356
-0.0246802
0.571018
-0.0286555
0.541516
-0.0321974
0.512974
-0.0352392
0.485472
-0.0377521
0.459016
-0.0396886
0.433832
-0.0410094
0.409836
-0.0416445
0.387147
-0.0415502
0.36605
-0.0409484
0.346666
-0.0398892
0.328843
-0.0385246
0.312629
-0.03719
0.298041
-0.0361609
0.284966
-0.0356715
0.273164
-0.035798
0.262355
-0.0362272
0.252169
-0.0369379
0.242541
-0.038425
0.23349
-0.0409055
0.224616
-0.044256
0.215531
-0.0482831
0.206077
-0.0522297
0.195985
-0.0555105
0.185418
-0.0585207
0.17514
-0.0612297
0.165399
-0.0629103
0.15533
-0.0632135
0.144385
-0.0611432
0.131225
-0.0546602
0.112745
-0.0390216
0.0836712
-0.0169178
0.045906
-0.00466013
0.0207456
-0.000858013
0.0101009
1.66432e-05
0.00570032
0.000148502
0.00392138
0.000120229
0.00314247
0.00190368
0.00614478
0.897132
0.00714446
0.966989
0.0073272
0.927121
0.00680992
0.885812
0.00642955
0.843946
0.00504085
0.806368
0.00290374
0.769776
-7.0943e-05
0.735107
-0.00374519
0.701356
-0.0079544
0.668809
-0.0126787
0.637252
-0.0177549
0.606432
-0.0230191
0.576282
-0.0282677
0.546765
-0.0331794
0.517886
-0.0375062
0.489798
-0.0409582
0.462468
-0.0433264
0.4362
-0.0447739
0.411283
-0.0454636
0.387837
-0.0453492
0.365935
-0.0445187
0.345835
-0.0431868
0.327511
-0.0414987
0.310941
-0.0396142
0.296156
-0.0376553
0.283007
-0.0359104
0.271419
-0.0347434
0.261188
-0.0347635
0.252189
-0.0361301
0.243908
-0.0385323
0.235892
-0.0417022
0.227786
-0.0453583
0.219187
-0.049121
0.209839
-0.0530236
0.199887
-0.0573558
0.18975
-0.0613299
0.179114
-0.0639313
0.168001
-0.0655245
0.156923
-0.0651969
0.144057
-0.0603042
0.126332
-0.0470437
0.0994841
-0.0243432
0.0609707
-0.0082579
0.0298208
-0.00276117
0.0152489
-0.00141655
0.00875624
-0.00116706
0.00545082
-0.000859322
0.00361364
-0.000328613
0.00261176
0.00157507
0.00498672
0.892145
0.00613653
0.965839
0.0064068
0.926851
0.00640387
0.885815
0.00560965
0.844741
0.00427642
0.807701
0.00247394
0.771578
-7.56355e-05
0.737657
-0.00338408
0.704665
-0.00741203
0.672837
-0.0120495
0.64189
-0.0171826
0.611565
-0.022567
0.581666
-0.0279768
0.552174
-0.0332063
0.523116
-0.0380377
0.49463
-0.0423249
0.466755
-0.0457875
0.439663
-0.048203
0.413699
-0.0494685
0.389102
-0.0496725
0.366139
-0.0488316
0.344994
-0.0471231
0.325803
-0.044853
0.308671
-0.0423629
0.293666
-0.0399657
0.28061
-0.0380313
0.269485
-0.0365778
0.259735
-0.0355335
0.251145
-0.035183
0.243558
-0.0358723
0.236581
-0.0381461
0.23006
-0.0421276
0.223168
-0.0474422
0.215154
-0.0534886
0.205933
-0.0588382
0.1951
-0.0634868
0.183763
-0.067141
0.171655
-0.0685177
0.1583
-0.0651748
0.140714
-0.0547533
0.115911
-0.0324255
0.0771563
-0.0123313
0.0408764
-0.00390288
0.0213924
-0.00114031
0.0124863
-0.000494178
0.00811011
-0.000540798
0.00549744
-0.000624975
0.00369782
-0.000373632
0.00236042
0.00120144
0.00457988
0.887565
0.00616886
0.96425
0.0060968
0.926923
0.00704944
0.884862
0.00735249
0.844438
0.00690017
0.808154
0.00582962
0.772649
0.00376646
0.73972
0.000864395
0.707567
-0.00296126
0.676662
-0.00771135
0.64664
-0.0133108
0.617165
-0.0195549
0.587911
-0.0262146
0.558834
-0.0328819
0.529783
-0.0392208
0.500969
-0.0448833
0.472417
-0.0495111
0.444291
-0.0527903
0.416978
-0.0546124
0.390925
-0.0551954
0.366722
-0.0546299
0.344429
-0.0528634
0.324036
-0.0500878
0.305895
-0.0465944
0.290173
-0.0427094
0.276725
-0.0388192
0.265595
-0.0356246
0.25654
-0.0338257
0.249346
-0.0336036
0.243335
-0.0350891
0.238067
-0.0378819
0.232853
-0.0420249
0.227311
-0.0474212
0.22055
-0.0532232
0.211735
-0.0596907
0.201567
-0.0657651
0.189837
-0.0694972
0.175387
-0.0687862
0.157589
-0.0617908
0.133719
-0.0405125
0.0946325
-0.0170766
0.0537204
-0.0051543
0.0289541
-4.14787e-05
0.0162796
0.00229703
0.0101478
0.00314059
0.00726656
0.00266056
0.00597747
0.00144678
0.0049116
0.000350608
0.0034566
0.00155205
0.000314377
0.887251
0.0031136
0.961451
0.00283677
0.9272
0.00358267
0.884116
0.00396255
0.844058
0.00396455
0.808152
0.0035104
0.773103
0.00215901
0.741071
5.0449e-05
0.709675
-0.00308511
0.679798
-0.00725881
0.650813
-0.0123737
0.622279
-0.0183261
0.593863
-0.024836
0.565344
-0.0316809
0.536628
-0.0385515
0.507839
-0.0450016
0.478867
-0.0507073
0.449996
-0.0552745
0.421545
-0.0584081
0.394058
-0.0599575
0.368271
-0.0599661
0.344437
-0.0584249
0.322495
-0.0555845
0.303055
-0.0518961
0.286484
-0.0478473
0.272676
-0.0437053
0.261453
-0.0396565
0.252491
-0.0358047
0.245494
-0.0328707
0.240401
-0.0315116
0.236708
-0.0324993
0.233841
-0.0362457
0.231058
-0.0427549
0.22706
-0.0514659
0.220447
-0.0604465
0.210548
-0.0674211
0.196812
-0.0707396
0.178705
-0.0670198
0.153869
-0.0489389
0.115638
-0.0235632
0.0692568
-0.00928732
0.0394445
-0.00292548
0.0225923
0.000115589
0.0132385
0.00232855
0.00793483
0.00367108
0.00592402
0.00368754
0.005961
0.00259565
0.00600349
0.000961847
0.0050904
0.00251389
0.000182839
0.887068
0.00139271
0.960241
0.00229922
0.926294
0.00357135
0.882844
0.00481562
0.842813
0.00549046
0.807477
0.0059995
0.772594
0.00549046
0.74158
0.00422718
0.710939
0.00175226
0.682273
-0.00200188
0.654568
-0.00704949
0.627327
-0.0134598
0.600273
-0.0210163
0.5729
-0.0292495
0.544861
-0.0377734
0.516363
-0.0460633
0.487157
-0.0535212
0.457454
-0.0598407
0.427865
-0.0645592
0.398777
-0.0672725
0.370985
-0.0678954
0.34506
-0.0664834
0.321083
-0.0631525
0.299724
-0.0581768
0.281509
-0.0521231
0.266622
-0.0456621
0.254992
-0.0396439
0.246473
-0.0348279
0.240678
-0.0315657
0.237139
-0.0303317
0.235474
-0.0312327
0.234742
-0.0344252
0.23425
-0.0410244
0.233659
-0.0501491
0.229571
-0.0598217
0.220221
-0.0655694
0.202559
-0.0673515
0.180487
-0.0560965
0.142614
-0.0315226
0.091064
-0.0156927
0.0534269
-0.0103838
0.0341356
-0.00698599
0.0191945