/*--------------------------------*- C++ -*----------------------------------*\
| =========                 |                                                 |
| \\      /  F ield         | OpenFOAM: The Open Source CFD Toolbox           |
|  \\    /   O peration     | Version:  v1912                                 |
|   \\  /    A nd           | Website:  www.openfoam.com                      |
|    \\/     M anipulation  |                                                 |
\*---------------------------------------------------------------------------*/
FoamFile
{
    version     2.0;
    format      ascii;
    class       volVectorField;
    location    "0.4";
    object      U;
}
// * * * * * * * * * * * * * * * * * * * * * * * * * * * * * * * * * * * * * //

dimensions      [0 1 -1 0 0 0 0];


internalField   nonuniform List<vector> 
6600
(
(39.8371 -0.0518969 0)
(40.0672 -0.0825423 2.81062e-20)
(40.1109 -0.0389255 1.96228e-18)
(40.1249 -0.000145258 0)
(40.1421 0.0424678 2.45267e-18)
(40.1475 0.0899338 8.39516e-20)
(40.1374 0.141668 -9.31978e-20)
(40.1469 0.191315 -1.02588e-19)
(40.1573 0.256908 2.06799e-18)
(40.1593 0.343523 -1.75963e-19)
(40.157 0.448319 0)
(40.1559 0.569823 -2.51073e-18)
(40.1469 0.713573 0)
(40.1375 0.877322 -2.80415e-18)
(40.12 1.06382 -3.66186e-18)
(40.0929 1.27532 -1.91705e-18)
(40.043 1.50124 0)
(39.9911 1.73059 0)
(39.9722 1.97134 2.95917e-18)
(39.9596 2.2118 -2.76394e-18)
(39.9183 2.47459 -3.96492e-19)
(39.8484 2.77297 -1.38113e-18)
(39.7941 3.09057 -2.5198e-18)
(39.7242 3.48426 5.40771e-19)
(39.5863 3.90967 1.8994e-18)
(39.4669 4.34236 0)
(39.3841 4.7899 4.44824e-18)
(39.2826 5.26198 0)
(39.1405 5.78775 -2.0836e-18)
(38.9251 6.35068 -1.29887e-18)
(38.7688 6.96447 -3.82186e-19)
(38.6574 7.62388 -1.51264e-18)
(38.5233 8.34302 -6.39185e-19)
(38.3544 9.10644 1.17525e-18)
(38.1773 9.92386 4.25053e-19)
(38.0123 10.836 1.24448e-18)
(37.8153 11.8557 2.58322e-18)
(37.6363 12.9611 2.2365e-18)
(37.498 14.1449 -1.60738e-18)
(37.3544 15.4236 1.63766e-18)
(37.203 16.8044 8.15112e-19)
(37.0882 18.295 0)
(37.0164 19.8988 1.83196e-19)
(36.9339 21.62 -2.49395e-19)
(36.8296 23.4208 0)
(36.8008 25.3924 -1.65328e-18)
(36.7588 27.3898 -3.86422e-18)
(37.1164 29.696 0)
(35.6722 31.0839 0)
(26.6879 25.208 -2.29529e-18)
(39.7172 -0.056621 1.65781e-18)
(40.1182 -0.0970628 -1.78971e-18)
(40.1406 -0.0323852 0)
(40.1618 0.00971987 -3.39409e-20)
(40.1758 0.0644953 2.41845e-18)
(40.185 0.101305 8.27143e-20)
(40.1897 0.161871 -4.97974e-22)
(40.205 0.24319 -1.01257e-19)
(40.2176 0.34681 0)
(40.2325 0.461111 -3.82636e-18)
(40.2393 0.601828 -1.36797e-19)
(40.2375 0.750436 2.37181e-18)
(40.2411 0.914546 2.45398e-18)
(40.2412 1.09968 1.57085e-18)
(40.2296 1.2953 1.0884e-21)
(40.2231 1.50326 2.27241e-19)
(40.2112 1.72567 -1.94764e-18)
(40.189 1.96581 0)
(40.1413 2.2435 0)
(40.0976 2.54046 2.79307e-18)
(40.0635 2.84198 3.70487e-19)
(39.9876 3.15987 -1.97773e-18)
(39.909 3.47661 -1.7156e-18)
(39.8514 3.7769 -1.87543e-18)
(39.7815 4.11775 -1.5027e-18)
(39.6922 4.51305 -6.02429e-19)
(39.5996 4.98619 -7.51634e-19)
(39.5063 5.4811 -7.18861e-19)
(39.4177 6.00105 2.05796e-18)
(39.3657 6.5888 3.36083e-19)
(39.2806 7.22709 -2.43142e-18)
(39.1804 7.9249 2.12872e-18)
(39.0701 8.66421 1.29274e-18)
(38.969 9.48077 -1.72612e-18)
(38.8592 10.3618 4.72449e-19)
(38.7593 11.3023 -1.27282e-18)
(38.6716 12.314 5.61305e-19)
(38.5829 13.3969 -8.65365e-19)
(38.5348 14.574 -1.81408e-19)
(38.5097 15.8457 -1.78272e-19)
(38.5029 17.1998 0)
(38.5203 18.6602 0)
(38.5416 20.1865 7.26662e-19)
(38.649 21.8409 -9.37359e-19)
(38.8387 23.5961 -3.12652e-18)
(39.0943 25.4963 1.70726e-18)
(39.2813 27.3998 6.08582e-18)
(39.81 29.6148 0)
(38.4404 30.5645 -6.23565e-18)
(27.9936 24.3667 2.68239e-18)
(39.6027 -0.0442599 -4.05196e-20)
(40.1799 -0.138063 1.82517e-18)
(40.1961 -0.0468225 1.92999e-18)
(40.2166 0.000817326 -3.2411e-22)
(40.23 0.0642242 -1.66213e-19)
(40.2219 0.131491 8.17755e-20)
(40.2273 0.217184 0)
(40.2495 0.309396 0)
(40.2719 0.423675 0)
(40.2791 0.541809 2.08062e-18)
(40.2985 0.679534 -1.33543e-19)
(40.303 0.840414 -2.39294e-18)
(40.317 1.02113 -1.21483e-18)
(40.3263 1.21756 2.67633e-18)
(40.3305 1.42632 1.53335e-18)
(40.3143 1.65517 -2.15475e-19)
(40.285 1.89569 4.0518e-18)
(40.2728 2.13993 -2.02297e-18)
(40.2856 2.37751 -2.2123e-18)
(40.2823 2.64381 0)
(40.2857 2.94346 -1.31427e-18)
(40.2673 3.26777 1.58482e-18)
(40.2452 3.65798 1.73619e-18)
(40.1901 4.08672 1.89911e-18)
(40.1163 4.51874 1.59719e-18)
(40.0581 4.95229 -1.64109e-19)
(40.0199 5.41008 -2.84365e-19)
(39.9741 5.90976 -7.6346e-19)
(39.8929 6.46391 -3.22943e-19)
(39.7573 7.05202 1.18589e-18)
(39.6927 7.67651 3.51591e-19)
(39.6942 8.36779 0)
(39.6804 9.12057 -1.31921e-18)
(39.6442 9.91054 2.76876e-19)
(39.616 10.7536 5.32434e-19)
(39.5999 11.6697 3.3567e-19)
(39.5719 12.6745 -5.47457e-19)
(39.5872 13.7627 -2.97011e-20)
(39.6575 14.9165 5.54435e-19)
(39.7514 16.1591 0)
(39.8666 17.4888 1.40354e-18)
(40.0382 18.8941 0)
(40.2913 20.3958 0)
(40.5543 21.9778 3.32251e-18)
(40.8331 23.6276 1.91262e-18)
(41.2245 25.4115 -3.635e-18)
(41.6658 27.2633 -3.67458e-18)
(42.3239 29.2052 0)
(40.893 29.7209 -4.01383e-18)
(29.0418 23.0655 4.22895e-18)
(39.4953 -0.0362401 -1.62872e-18)
(40.2654 -0.126232 1.35176e-20)
(40.2678 -0.00938051 -1.98394e-18)
(40.2782 0.0394563 -2.04202e-18)
(40.2752 0.0967355 -2.3099e-18)
(40.2841 0.167133 -1.21721e-18)
(40.2993 0.27158 -8.81868e-20)
(40.3245 0.391012 0)
(40.3557 0.525626 1.67431e-18)
(40.3764 0.683907 1.95784e-18)
(40.3935 0.845998 -1.29682e-19)
(40.4159 1.02036 -1.41142e-19)
(40.4339 1.21709 -1.11942e-18)
(40.451 1.42299 -2.38984e-19)
(40.4696 1.64053 1.05415e-19)
(40.4941 1.85967 -2.04074e-19)
(40.4993 2.09413 1.00891e-19)
(40.4782 2.37114 2.28385e-18)
(40.4509 2.66702 2.98438e-18)
(40.435 2.96328 0)
(40.4305 3.27475 1.40352e-19)
(40.3992 3.60363 0)
(40.3783 3.9095 0)
(40.39 4.24745 -3.79353e-19)
(40.3744 4.62962 1.16537e-18)
(40.3366 5.07126 1.17118e-18)
(40.2994 5.56377 -2.33459e-19)
(40.2768 6.06983 1.06964e-18)
(40.2983 6.61396 0)
(40.3303 7.22319 0)
(40.318 7.87725 3.00745e-19)
(40.3109 8.57702 0)
(40.3338 9.33442 3.7574e-19)
(40.374 10.1701 1.77513e-19)
(40.4177 11.0686 -3.30709e-19)
(40.4913 12.0047 1.12635e-19)
(40.5877 12.9856 -1.12419e-18)
(40.691 14.0297 4.3739e-19)
(40.8577 15.1636 4.48307e-19)
(41.0744 16.3665 5.28011e-19)
(41.3285 17.6433 -3.73554e-18)
(41.6346 18.9999 0)
(41.9805 20.3887 0)
(42.4354 21.8778 -2.05926e-18)
(42.9951 23.433 -3.62973e-18)
(43.6308 25.0959 -9.69233e-19)
(44.2429 26.8294 -5.95013e-18)
(44.8978 28.5577 6.57427e-18)
(43.199 28.6463 9.00825e-18)
(29.7346 21.4788 0)
(39.3805 -0.0306563 -6.03093e-21)
(40.3227 -0.137382 1.67115e-18)
(40.3243 0.00231435 1.81346e-18)
(40.3371 0.0473702 2.11511e-18)
(40.3298 0.131966 0)
(40.3344 0.236783 4.06409e-20)
(40.3671 0.35861 0)
(40.3944 0.481232 -9.33785e-20)
(40.4096 0.610849 -3.19674e-18)
(40.4372 0.761308 -1.96137e-18)
(40.4573 0.928742 1.25292e-19)
(40.4844 1.10943 1.35449e-19)
(40.5131 1.30439 -1.50782e-19)
(40.5423 1.50672 -1.3443e-18)
(40.5609 1.7295 -3.02388e-18)
(40.5733 1.97625 1.96166e-19)
(40.5883 2.21905 -3.36269e-18)
(40.616 2.45445 2.23897e-19)
(40.6518 2.72012 -1.03845e-18)
(40.672 3.00846 -5.25841e-19)
(40.7036 3.31626 1.48647e-18)
(40.7367 3.67396 0)
(40.7406 4.09471 0)
(40.7339 4.53621 -5.79187e-19)
(40.738 4.97638 -7.51936e-19)
(40.7668 5.42733 7.25397e-19)
(40.7912 5.91445 -1.77172e-19)
(40.8177 6.43697 0)
(40.8018 6.99375 1.26188e-19)
(40.787 7.58633 -1.40561e-19)
(40.8349 8.22265 -3.05672e-19)
(40.9447 8.9178 1.23392e-19)
(41.0532 9.66067 -6.71719e-21)
(41.1572 10.4383 2.07752e-19)
(41.2901 11.2785 -2.31183e-19)
(41.4468 12.1885 0)
(41.6183 13.164 5.21127e-19)
(41.8397 14.1981 2.55735e-18)
(42.1233 15.2779 -1.35295e-18)
(42.4554 16.4322 -1.69658e-18)
(42.8325 17.6477 2.35328e-18)
(43.2851 18.9128 0)
(43.8259 20.2438 0)
(44.3922 21.6214 -3.49274e-18)
(45.0013 23.0265 7.60652e-18)
(45.7392 24.5326 1.94911e-18)
(46.5375 26.1883 3.61045e-18)
(47.1399 27.5807 -8.01428e-18)
(45.0089 27.2428 6.18113e-19)
(29.9563 19.6023 -1.23692e-17)
(39.2711 -0.0243909 1.50187e-18)
(40.4101 -0.113233 -6.09251e-20)
(40.3983 0.0573373 -1.84853e-18)
(40.4114 0.100608 9.7771e-19)
(40.4219 0.195294 0)
(40.4372 0.306525 1.26333e-18)
(40.4695 0.437957 -4.15766e-20)
(40.5123 0.58955 -1.41876e-18)
(40.5532 0.749371 1.6256e-18)
(40.5748 0.92006 0)
(40.6106 1.08916 1.18109e-19)
(40.6419 1.28397 8.78372e-19)
(40.6777 1.48461 -1.23739e-18)
(40.708 1.69799 1.56183e-19)
(40.7555 1.90812 1.55117e-18)
(40.7956 2.13528 -1.83211e-19)
(40.8163 2.39898 1.07983e-18)
(40.8205 2.69272 -2.1145e-19)
(40.8322 2.99171 2.13796e-19)
(40.8565 3.2956 6.15266e-19)
(40.8866 3.6185 7.6256e-19)
(40.8992 3.90897 1.01083e-20)
(40.9438 4.21171 2.54537e-19)
(40.9984 4.57481 8.76952e-19)
(41.0418 4.98638 0)
(41.0796 5.45327 -5.72376e-19)
(41.1213 5.95127 8.53176e-20)
(41.184 6.4599 -3.57349e-20)
(41.3266 7.02992 -1.05484e-19)
(41.4494 7.64876 2.47779e-20)
(41.5401 8.30297 2.87432e-19)
(41.6548 8.9932 -1.19269e-19)
(41.8202 9.73296 0)
(42.0003 10.5374 0)
(42.1898 11.3964 0)
(42.4458 12.2906 0)
(42.7347 13.2173 2.12197e-18)
(43.04 14.1972 -4.04203e-18)
(43.4219 15.244 0)
(43.8671 16.3336 6.29812e-20)
(44.3597 17.4669 -3.64589e-19)
(44.9191 18.6551 -5.37262e-18)
(45.5331 19.8503 2.94786e-18)
(46.2624 21.1062 0)
(47.103 22.3835 2.72923e-18)
(47.9907 23.7342 -1.00033e-17)
(48.8419 25.233 7.04118e-18)
(49.2835 26.3692 5.2511e-18)
(46.5156 25.6116 1.88577e-17)
(29.6712 17.4531 -1.41662e-17)
(39.1533 -0.014346 -1.49991e-18)
(40.4781 -0.0965932 -3.18201e-18)
(40.4824 0.0914192 2.72984e-20)
(40.5148 0.144723 -9.81235e-19)
(40.5163 0.278317 1.00225e-18)
(40.5399 0.404414 -3.59652e-20)
(40.574 0.538781 1.28147e-18)
(40.6024 0.680585 1.42444e-18)
(40.6381 0.828635 1.52719e-18)
(40.6705 0.997955 -5.23803e-20)
(40.7087 1.17544 -8.74409e-19)
(40.7534 1.3614 -6.91137e-20)
(40.8039 1.55097 1.10301e-18)
(40.8426 1.76231 0)
(40.8809 1.99332 0)
(40.9276 2.23135 8.0051e-20)
(40.9794 2.45804 1.29848e-18)
(41.0453 2.70093 0)
(41.0931 2.97789 9.1526e-20)
(41.1534 3.26945 -9.63306e-19)
(41.2334 3.60636 -7.92921e-19)
(41.3171 4.01723 2.26553e-19)
(41.3715 4.43671 0)
(41.4304 4.85282 -4.31738e-19)
(41.5114 5.27901 -6.16619e-20)
(41.6151 5.72824 6.88214e-20)
(41.714 6.21838 0)
(41.8191 6.74412 0)
(41.8831 7.2884 -1.36157e-19)
(41.9942 7.8649 3.07323e-19)
(42.1584 8.48933 -5.62022e-19)
(42.3799 9.17681 3.01599e-19)
(42.6243 9.89943 5.71051e-19)
(42.8843 10.6383 -1.4252e-18)
(43.1767 11.4176 2.55235e-18)
(43.5008 12.2598 9.08184e-19)
(43.8548 13.1586 -1.47553e-18)
(44.2648 14.0972 1.96182e-18)
(44.7441 15.0561 -3.20189e-18)
(45.282 16.066 7.57429e-20)
(45.8812 17.1133 -4.58117e-19)
(46.5519 18.1841 2.78196e-18)
(47.2977 19.2892 4.12118e-18)
(48.0766 20.4072 -4.57818e-18)
(48.9009 21.5169 2.83026e-18)
(49.8524 22.7064 0)
(50.8064 24.0806 4.35142e-18)
(51.0068 24.8705 6.50101e-18)
(47.372 23.6549 -1.34176e-17)
(28.7363 15.0506 -4.21452e-18)
(39.0688 -0.0105563 1.39513e-18)
(40.5771 -0.0716437 1.55427e-18)
(40.575 0.142225 1.33253e-20)
(40.635 0.201939 -9.06574e-19)
(40.6458 0.351237 -2.03407e-18)
(40.6809 0.484164 1.1218e-18)
(40.7345 0.636087 -2.47052e-18)
(40.783 0.797232 6.45884e-19)
(40.8324 0.966525 -1.48578e-18)
(40.8841 1.14063 -8.06383e-19)
(40.9302 1.33221 1.80088e-18)
(40.9812 1.52916 -1.06441e-18)
(41.032 1.73069 -9.31534e-19)
(41.0925 1.93978 3.03087e-21)
(41.1588 2.14822 -4.48589e-19)
(41.2213 2.39079 5.4079e-19)
(41.2651 2.66388 -6.53295e-19)
(41.313 2.9493 0)
(41.3667 3.2396 0)
(41.4197 3.54246 0)
(41.4673 3.81502 -6.71725e-20)
(41.5571 4.09814 -2.58553e-19)
(41.6615 4.41848 -9.88107e-20)
(41.7609 4.79123 -5.20933e-20)
(41.8692 5.20139 0)
(41.9892 5.65419 0)
(42.1118 6.13173 -1.97582e-19)
(42.2798 6.63694 1.38922e-19)
(42.5247 7.19837 -1.24894e-19)
(42.7562 7.79846 1.507e-19)
(42.9676 8.42074 9.50918e-20)
(43.208 9.06951 8.31479e-19)
(43.5057 9.75924 -4.19211e-19)
(43.8208 10.5124 1.63622e-18)
(44.152 11.2984 -1.15823e-18)
(44.5612 12.1012 -5.88184e-19)
(45.0142 12.925 2.35145e-19)
(45.4931 13.7911 1.38461e-18)
(46.0514 14.7039 1.41829e-18)
(46.6754 15.6331 2.17895e-18)
(47.3397 16.5737 -4.4968e-19)
(48.0643 17.5405 3.87651e-18)
(48.8611 18.5067 -4.31197e-18)
(49.7623 19.4997 0)
(50.7643 20.4825 0)
(51.7658 21.5158 0)
(52.6022 22.6765 0)
(52.4847 23.141 0)
(47.7293 21.5424 -7.95784e-18)
(27.1111 12.4797 1.30119e-17)
(38.996 -0.0112992 -1.39797e-18)
(40.6956 -0.0470713 0)
(40.7183 0.181739 0)
(40.7519 0.241869 9.22627e-19)
(40.7649 0.423485 9.82768e-19)
(40.8007 0.554383 -1.12333e-18)
(40.8396 0.703622 1.2267e-18)
(40.8854 0.859424 -6.47943e-19)
(40.9401 1.01872 6.60474e-19)
(40.9996 1.19329 8.06155e-19)
(41.06 1.37008 -8.22379e-19)
(41.1226 1.55463 7.49753e-19)
(41.195 1.7547 1.36132e-18)
(41.2528 1.96657 0)
(41.3194 2.19275 5.22588e-19)
(41.4046 2.40578 -6.03246e-19)
(41.4962 2.62264 6.84992e-21)
(41.5873 2.86861 -4.27243e-19)
(41.6797 3.13782 4.65812e-19)
(41.7964 3.45053 0)
(41.9417 3.81872 0)
(42.0634 4.21357 6.42194e-20)
(42.1883 4.6027 1.69626e-19)
(42.3317 4.99873 1.406e-19)
(42.4894 5.41483 6.04542e-20)
(42.6724 5.84268 -3.17225e-19)
(42.8458 6.30795 5.8043e-19)
(43.0011 6.7934 -8.01784e-19)
(43.1761 7.30621 4.58887e-19)
(43.3867 7.85036 -4.40951e-19)
(43.6567 8.43572 2.7112e-19)
(43.9872 9.07959 -9.264e-19)
(44.3606 9.74489 6.84978e-19)
(44.7613 10.4075 -1.18465e-18)
(45.1946 11.1022 0)
(45.6549 11.8378 -1.17492e-18)
(46.1485 12.6109 -1.21944e-18)
(46.7014 13.4057 2.59917e-19)
(47.3231 14.2058 2.61596e-18)
(47.9983 15.0348 -2.60343e-18)
(48.7381 15.8809 -4.3249e-19)
(49.5478 16.7325 -4.46397e-18)
(50.4027 17.5824 1.04656e-17)
(51.2872 18.4247 6.26938e-19)
(52.2116 19.2452 7.44033e-19)
(53.3007 20.2002 -4.10625e-18)
(54.0178 21.0109 0)
(53.4404 21.2824 7.30188e-18)
(47.2542 19.1731 -3.8212e-18)
(24.6798 9.80097 0)
(38.9522 0.00556444 5.05192e-21)
(40.8274 -0.0231443 -7.93307e-23)
(40.8569 0.233809 -7.75212e-19)
(40.9094 0.278519 0)
(40.9323 0.480699 -1.44445e-20)
(40.9845 0.610683 -4.79564e-19)
(41.0458 0.774872 0)
(41.1019 0.940421 5.78136e-19)
(41.1703 1.10793 -7.01644e-19)
(41.243 1.28442 4.36991e-20)
(41.3129 1.4743 6.97106e-19)
(41.3811 1.66984 -3.94979e-19)
(41.4665 1.8711 -4.75889e-19)
(41.5595 2.07708 0)
(41.6431 2.2955 0)
(41.7373 2.54429 0)
(41.8262 2.80625 -3.04152e-19)
(41.9263 3.07127 4.27747e-19)
(42.0095 3.34176 -5.70666e-19)
(42.0872 3.59723 2.29144e-20)
(42.2048 3.86028 -3.31028e-20)
(42.3444 4.12756 -5.62211e-20)
(42.5019 4.44948 -2.2093e-19)
(42.6718 4.81238 -3.18518e-19)
(42.8524 5.2048 0)
(43.0546 5.6279 3.46994e-19)
(43.2683 6.07083 -1.06238e-18)
(43.5657 6.5516 7.39808e-19)
(43.8882 7.07226 -4.5538e-19)
(44.2199 7.61588 2.77671e-19)
(44.5476 8.17726 -4.26984e-19)
(44.8994 8.75318 1.61047e-18)
(45.303 9.36185 -1.88064e-18)
(45.7273 10.031 2.60752e-18)
(46.1685 10.7146 1.124e-18)
(46.6887 11.4085 -2.66444e-18)
(47.2623 12.1044 3.35172e-18)
(47.8616 12.8181 -2.18551e-18)
(48.5293 13.5589 4.10009e-20)
(49.261 14.3041 0)
(50.0213 15.0397 3.6829e-18)
(50.8156 15.7657 2.50897e-18)
(51.6979 16.4929 2.66912e-19)
(52.6801 17.2214 -7.13268e-18)
(53.7548 17.9367 -3.10918e-19)
(54.7859 18.7486 -4.90505e-18)
(55.1144 19.2471 0)
(53.8915 19.2618 7.81309e-18)
(46.061 16.7189 -1.3048e-17)
(21.4943 7.17775 0)
(38.9402 0.0222778 0)
(40.9775 -0.0150162 0)
(41.017 0.268259 4.13794e-19)
(41.0567 0.312093 -2.55686e-20)
(41.0729 0.51845 4.49787e-19)
(41.12 0.641079 4.96631e-19)
(41.1714 0.796183 0)
(41.2255 0.948954 -5.79058e-19)
(41.2975 1.1118 5.78068e-19)
(41.3796 1.27253 0)
(41.4573 1.44278 -1.01704e-18)
(41.5421 1.62001 -3.76867e-20)
(41.6291 1.81207 -4.21491e-20)
(41.7239 2.01849 4.69841e-20)
(41.8202 2.227 0)
(41.9407 2.427 0)
(42.0627 2.64391 2.44176e-19)
(42.2103 2.88489 7.33569e-20)
(42.3764 3.16511 7.76412e-20)
(42.5384 3.4703 -1.25755e-21)
(42.7238 3.80859 1.32264e-20)
(42.9066 4.17208 -1.31959e-20)
(43.1056 4.52216 1.98889e-19)
(43.3236 4.88379 1.10101e-19)
(43.561 5.2605 -3.31239e-19)
(43.8107 5.65999 -5.63969e-19)
(44.0428 6.08266 3.90853e-19)
(44.2829 6.5241 7.10157e-19)
(44.5528 6.9898 0)
(44.857 7.4752 0)
(45.2211 7.99536 0)
(45.6385 8.56975 -1.14391e-18)
(46.107 9.14359 -8.4574e-19)
(46.6128 9.70265 -8.96037e-19)
(47.1522 10.2902 1.33286e-18)
(47.7107 10.8945 1.64934e-18)
(48.2977 11.526 -7.78762e-19)
(48.9371 12.168 2.3751e-18)
(49.6387 12.8027 -1.39016e-18)
(50.3784 13.44 -1.86052e-18)
(51.1709 14.0741 -2.27504e-18)
(52.0449 14.7164 2.53681e-18)
(52.9358 15.3223 0)
(53.8355 15.9007 4.04008e-18)
(54.7776 16.4765 -2.33307e-18)
(55.738 17.1376 2.74132e-18)
(55.9465 17.3902 0)
(53.7537 17.1331 -4.06265e-18)
(43.8053 14.0715 2.3743e-18)
(17.3345 4.53408 0)
(38.9421 0.026783 2.86345e-19)
(41.1401 -0.00800005 0)
(41.1949 0.281486 7.21356e-19)
(41.2585 0.312049 -3.82312e-19)
(41.2899 0.536834 -4.3637e-19)
(41.3527 0.654087 1.40985e-20)
(41.4118 0.815187 -1.56906e-20)
(41.4825 0.976236 0)
(41.5626 1.13804 -5.62273e-19)
(41.6548 1.30941 2.62238e-19)
(41.7388 1.4904 3.19038e-19)
(41.8268 1.67179 -3.47551e-19)
(41.9423 1.86338 1.4701e-19)
(42.0539 2.05172 3.76277e-20)
(42.1621 2.27119 -1.93888e-20)
(42.2851 2.50606 0)
(42.4141 2.73966 1.33295e-19)
(42.5313 2.96874 -1.02119e-19)
(42.6523 3.19249 7.08577e-20)
(42.799 3.43977 -9.71499e-21)
(42.9641 3.67206 1.52609e-20)
(43.1605 3.91901 0)
(43.3729 4.22597 6.67562e-20)
(43.6069 4.55019 3.11849e-19)
(43.8608 4.90785 4.09507e-19)
(44.1519 5.27907 5.67324e-19)
(44.4839 5.67819 0)
(44.8523 6.10524 -5.06743e-19)
(45.2512 6.55508 -1.17982e-18)
(45.6621 7.03025 6.85523e-19)
(46.0915 7.51696 -1.5452e-18)
(46.5421 8.00297 -7.93989e-19)
(47.0321 8.52503 1.48054e-18)
(47.5337 9.09292 -5.49524e-19)
(48.0405 9.65919 -1.34448e-18)
(48.6212 10.2351 -7.35771e-19)
(49.2587 10.7981 -1.01598e-18)
(49.9234 11.3562 0)
(50.6377 11.9224 -1.68864e-18)
(51.4069 12.4906 3.75143e-18)
(52.2037 13.0407 2.3099e-18)
(52.998 13.5402 -2.76529e-18)
(53.8743 14.0406 3.59592e-18)
(54.8637 14.5391 -1.8848e-18)
(55.9786 15.0776 4.79377e-18)
(56.604 15.4498 1.06078e-19)
(56.1367 15.4989 0)
(52.7472 14.8662 8.41145e-18)
(40.5176 11.3063 -7.17828e-18)
(12.5686 2.1433 -2.71735e-18)
(38.9476 0.0271489 -2.86583e-19)
(41.325 -0.0165664 3.0558e-19)
(41.369 0.283583 -3.50352e-19)
(41.4125 0.309078 3.76927e-19)
(41.4331 0.531318 1.9943e-19)
(41.4931 0.628804 1.36295e-20)
(41.5506 0.784852 -7.44205e-21)
(41.6139 0.93029 0)
(41.6959 1.07462 2.36218e-19)
(41.7899 1.22695 -3.94061e-19)
(41.8878 1.38294 0)
(41.9896 1.55299 1.61193e-20)
(42.0951 1.72521 -5.33179e-20)
(42.2153 1.91028 -9.70755e-20)
(42.3393 2.08605 1.07965e-19)
(42.4862 2.26659 -4.81482e-21)
(42.6592 2.4822 -9.20775e-21)
(42.8609 2.71767 0)
(43.0558 2.96812 1.93693e-20)
(43.2605 3.23104 1.10338e-19)
(43.4908 3.54502 -1.41261e-20)
(43.7357 3.85012 0)
(43.9934 4.13888 0)
(44.2732 4.44671 -1.46796e-19)
(44.5655 4.7722 8.17442e-20)
(44.8558 5.12155 -6.2829e-19)
(45.155 5.48544 2.60429e-19)
(45.4901 5.8727 -1.56524e-19)
(45.8483 6.27878 5.64389e-19)
(46.2379 6.69464 2.55635e-19)
(46.6722 7.14546 9.13201e-19)
(47.1443 7.63636 -9.52817e-19)
(47.6668 8.10079 6.1893e-19)
(48.2436 8.56098 -6.83873e-19)
(48.8535 9.03974 -8.40466e-19)
(49.4743 9.51484 -9.28802e-19)
(50.1121 10.0083 0)
(50.7809 10.5085 2.2638e-18)
(51.5049 10.9961 -8.46879e-19)
(52.2556 11.4592 -2.05093e-18)
(53.0284 11.8967 2.46104e-18)
(53.8885 12.3568 -8.83056e-20)
(54.7727 12.7664 -1.90316e-18)
(55.6419 13.141 -2.1009e-20)
(56.5358 13.5404 -2.42301e-18)
(56.7701 13.6517 -5.99097e-18)
(56.0946 13.535 3.55938e-18)
(51.0238 12.4238 0)
(36.3164 8.41673 -5.02983e-18)
(8.26503 0.325264 9.61471e-18)
(38.9486 0.0255078 -5.27172e-22)
(41.5007 -0.0259176 -3.07597e-19)
(41.5619 0.25375 7.93842e-20)
(41.6337 0.263475 2.85094e-21)
(41.6561 0.488291 -1.99381e-19)
(41.7254 0.582545 0)
(41.7949 0.748518 0)
(41.874 0.893337 7.07631e-21)
(41.9691 1.04492 -3.78839e-19)
(42.0769 1.20388 1.30027e-19)
(42.1816 1.36914 -7.36331e-21)
(42.2955 1.54026 1.52846e-20)
(42.4234 1.70737 -8.52015e-20)
(42.5525 1.88746 7.44994e-20)
(42.6816 2.09274 -1.31975e-19)
(42.8159 2.28063 9.49612e-21)
(42.9466 2.46869 2.14482e-21)
(43.0939 2.6516 5.31238e-21)
(43.2662 2.84929 -6.57947e-20)
(43.4483 3.04257 -6.79722e-20)
(43.6552 3.22811 7.10647e-21)
(43.8955 3.46002 -3.02725e-20)
(44.1596 3.72331 0)
(44.4598 4.00203 -2.05433e-19)
(44.8033 4.29086 7.45938e-21)
(45.175 4.60432 6.73862e-20)
(45.5637 4.94095 7.01149e-20)
(45.9885 5.29105 2.0294e-19)
(46.4373 5.66511 0)
(46.9128 6.06232 1.62446e-19)
(47.4235 6.46108 9.43471e-19)
(47.9532 6.85887 9.01304e-19)
(48.5145 7.30771 -5.04542e-19)
(49.0614 7.76939 1.06349e-18)
(49.5972 8.22245 -8.77487e-19)
(50.1929 8.68795 -5.53648e-19)
(50.8427 9.14027 0)
(51.5287 9.56925 -1.51315e-18)
(52.2463 9.98369 -9.79604e-19)
(52.9912 10.4005 1.09429e-18)
(53.7699 10.7993 -1.31994e-18)
(54.5384 11.1213 1.57966e-18)
(55.3399 11.4389 0)
(56.3481 11.8064 1.12006e-18)
(56.9984 11.9905 0)
(57.0528 12.021 1.56611e-18)
(54.9019 11.5608 -3.74434e-18)
(47.895 9.89883 2.13577e-18)
(30.9289 5.42571 0)
(5.42293 -0.428064 6.95646e-19)
(38.9335 0.0176598 -6.43809e-23)
(41.6622 -0.0613328 -7.04727e-23)
(41.7097 0.232261 -8.18025e-20)
(41.7638 0.227018 -3.36339e-22)
(41.7833 0.438847 -2.54825e-21)
(41.8523 0.506208 -3.84516e-22)
(41.9114 0.660183 4.28009e-22)
(41.9918 0.784625 -8.42725e-22)
(42.088 0.918286 1.19815e-19)
(42.1944 1.055 1.79792e-21)
(42.3095 1.19689 8.43165e-22)
(42.4213 1.34195 -1.72886e-21)
(42.5506 1.49902 -5.35552e-20)
(42.6962 1.64557 4.71454e-20)
(42.8477 1.80083 3.68235e-20)
(43.0228 1.98295 -9.8582e-21)
(43.2275 2.16371 -2.14421e-21)
(43.4364 2.3645 -8.52613e-22)
(43.6572 2.56189 -1.59e-21)
(43.9017 2.795 0)
(44.1597 3.03842 -3.8048e-21)
(44.4382 3.25514 -2.86225e-21)
(44.7307 3.48385 3.20018e-21)
(45.0383 3.7313 0)
(45.3642 3.99282 0)
(45.7147 4.26515 2.3818e-19)
(46.0877 4.5638 0)
(46.4932 4.88091 -2.03218e-19)
(46.9285 5.21325 0)
(47.3878 5.5644 1.09874e-20)
(47.8764 5.9524 -4.29299e-19)
(48.3729 6.35207 3.0964e-20)
(48.9123 6.71168 -6.53707e-19)
(49.532 7.09646 5.92703e-20)
(50.1798 7.48876 3.95167e-19)
(50.8332 7.86136 6.2386e-19)
(51.4901 8.23342 -2.22244e-20)
(52.15 8.61476 0)
(52.8471 8.9957 -1.59369e-20)
(53.5709 9.33095 1.89882e-20)
(54.2915 9.61957 0)
(55.0483 9.92324 -2.66954e-20)
(55.9046 10.2108 -1.25485e-19)
(56.7338 10.4614 -9.51795e-19)
(56.9229 10.5166 -2.07406e-20)
(56.2587 10.2828 0)
(53.3137 9.59271 0)
(43.8146 7.41777 3.08323e-19)
(24.2227 2.72325 -3.05019e-19)
(3.22048 -0.533819 6.85702e-19)
(38.8939 0.014612 -1.29959e-19)
(41.7976 -0.0897151 -1.43212e-19)
(41.8931 0.161105 -7.76394e-20)
(41.9525 0.142662 -8.6661e-20)
(41.9862 0.353219 -8.6402e-20)
(42.0727 0.416095 9.49867e-20)
(42.1434 0.57493 0)
(42.2348 0.700074 0)
(42.3411 0.831826 -5.5548e-20)
(42.4557 0.978876 -1.79769e-21)
(42.5808 1.1266 5.15442e-20)
(42.7062 1.27719 3.54035e-21)
(42.8339 1.43109 4.29147e-20)
(42.9789 1.59 -3.28519e-20)
(43.1176 1.7396 -2.19908e-20)
(43.2496 1.89906 0)
(43.4046 2.04477 0)
(43.5692 2.19307 8.5268e-22)
(43.7608 2.33707 1.59033e-21)
(43.97 2.45947 -9.16613e-20)
(44.2101 2.61964 3.8058e-21)
(44.4868 2.80065 0)
(44.8078 2.99256 0)
(45.1648 3.19729 -4.56915e-20)
(45.5538 3.41611 -2.35995e-19)
(45.9663 3.65689 7.52576e-20)
(46.4053 3.91143 0)
(46.8736 4.18839 -2.39948e-19)
(47.3637 4.48598 0)
(47.8852 4.79729 -1.09849e-20)
(48.4413 5.10454 0)
(49.0375 5.43846 0)
(49.6615 5.82996 1.78372e-19)
(50.2312 6.20035 2.14701e-19)
(50.7722 6.55842 0)
(51.356 6.93669 0)
(51.9845 7.31599 2.22147e-20)
(52.6503 7.65545 0)
(53.3456 7.95261 1.59284e-20)
(54.0332 8.25951 -6.49203e-19)
(54.7214 8.54887 7.56032e-19)
(55.4692 8.78531 7.43233e-20)
(56.312 9.04385 5.10985e-20)
(56.7155 9.15512 -1.06704e-18)
(56.7484 9.09966 -6.71844e-19)
(55.4845 8.91507 4.07549e-18)
(49.9627 7.92176 -1.85127e-18)
(37.3808 5.42694 -2.19541e-18)
(14.7794 0.600582 1.80311e-18)
(1.67601 -0.307599 0)
(38.8259 -0.0133998 1.29693e-19)
(41.8974 -0.140358 -1.4165e-19)
(41.9902 0.121897 7.63521e-20)
(42.0447 0.0664702 -8.50369e-20)
(42.0739 0.263645 9.21007e-20)
(42.1616 0.296494 -9.8079e-20)
(42.231 0.442306 -6.23587e-21)
(42.3263 0.538643 6.94304e-21)
(42.4269 0.655152 4.89658e-20)
(42.5426 0.777491 7.29322e-21)
(42.6684 0.894358 -5.4681e-20)
(42.7943 1.02421 -1.02401e-19)
(42.9342 1.15303 4.48085e-20)
(43.0875 1.28954 3.23403e-20)
(43.2661 1.42635 6.51426e-20)
(43.4514 1.57074 1.8713e-21)
(43.6525 1.722 -2.08915e-21)
(43.8667 1.87631 6.98557e-20)
(44.0911 2.03721 1.84353e-20)
(44.3448 2.20615 7.09601e-20)
(44.6123 2.34326 0)
(44.8922 2.49501 0)
(45.2002 2.65067 0)
(45.5315 2.81795 0)
(45.9013 2.99144 2.27087e-19)
(46.3066 3.18874 -6.19e-19)
(46.7355 3.40058 0)
(47.2004 3.63364 7.44064e-19)
(47.7004 3.89559 0)
(48.2307 4.19226 0)
(48.7742 4.52607 -9.81081e-19)
(49.2805 4.84201 6.17412e-19)
(49.8181 5.12367 -1.4426e-18)
(50.4494 5.44404 4.15359e-19)
(51.1107 5.78032 0)
(51.7794 6.0923 0)
(52.4364 6.37557 7.8773e-19)
(53.0784 6.67511 -2.72957e-18)
(53.7212 7.00463 0)
(54.379 7.27438 -1.9841e-18)
(55.0763 7.50582 3.01723e-18)
(55.7498 7.73382 -3.47325e-18)
(56.4234 7.94881 1.89206e-18)
(56.5909 7.97343 -2.35256e-18)
(56.0413 7.9372 6.35263e-18)
(53.0426 7.39652 -5.64903e-18)
(45.7087 6.146 3.78071e-18)
(29.9185 3.26417 -8.45471e-18)
(8.87457 -0.29116 1.00851e-17)
(0.96309 -0.021728 -6.5045e-18)
(38.7123 -0.0198453 2.63059e-19)
(41.953 -0.18091 -3.44319e-21)
(42.1166 0.015981 0)
(42.1783 -0.043121 1.70159e-19)
(42.2446 0.143049 3.82942e-19)
(42.3391 0.163706 -1.25319e-20)
(42.4203 0.307202 0)
(42.5304 0.402454 0)
(42.6428 0.529522 1.32369e-20)
(42.7688 0.660904 -1.47457e-20)
(42.9009 0.791767 2.2529e-19)
(43.0273 0.927353 -1.11044e-19)
(43.1553 1.0631 -8.98578e-20)
(43.289 1.19156 7.59742e-20)
(43.4224 1.31752 -4.03282e-20)
(43.5617 1.43479 3.50841e-21)
(43.7111 1.54386 -5.61804e-20)
(43.8774 1.64161 -2.01045e-19)
(44.0651 1.72429 0)
(44.2899 1.8147 1.87588e-19)
(44.5587 1.9216 2.78382e-19)
(44.8605 2.01942 0)
(45.2047 2.12515 -5.44615e-19)
(45.575 2.24038 0)
(45.9833 2.36854 0)
(46.4348 2.51516 6.17124e-19)
(46.9154 2.69386 3.82608e-19)
(47.4314 2.88842 1.01991e-18)
(47.9641 3.09831 0)
(48.5151 3.32201 0)
(49.1003 3.55251 4.51598e-19)
(49.7632 3.84363 5.87802e-19)
(50.4537 4.19641 2.31179e-18)
(51.0656 4.53006 7.16458e-20)
(51.6129 4.83088 8.06843e-20)
(52.1725 5.14391 -2.63886e-18)
(52.7692 5.48824 -1.01457e-19)
(53.3919 5.78996 3.65584e-18)
(54.0475 6.01397 2.25114e-18)
(54.6938 6.26904 1.28865e-18)
(55.2629 6.50904 3.13227e-18)
(56.0627 6.78847 1.60243e-19)
(56.3883 6.87623 -3.90566e-18)
(56.2394 6.92974 -2.46347e-18)
(54.8282 6.73939 -7.12849e-18)
(50.334 6.167 8.12257e-18)
(38.914 4.23092 -3.67279e-18)
(19.3863 0.798987 0)
(5.14286 -0.571575 0)
(0.44668 -0.0468228 1.28694e-18)
(38.552 -0.0899747 -7.99376e-19)
(41.9735 -0.258502 -3.05218e-19)
(42.1584 -0.0582284 3.23967e-19)
(42.2026 -0.132481 -1.06717e-20)
(42.2747 0.0236648 -7.50572e-19)
(42.3687 0.0090467 1.27498e-20)
(42.4527 0.138318 0)
(42.576 0.191154 4.54396e-19)
(42.6872 0.300356 1.37116e-20)
(42.8201 0.405229 -1.54576e-21)
(42.9606 0.516826 -4.79398e-19)
(43.0994 0.635171 2.005e-19)
(43.2405 0.76143 3.14268e-21)
(43.3976 0.885168 -6.39335e-20)
(43.5662 1.00969 0)
(43.737 1.13274 0)
(43.9192 1.25537 4.22831e-20)
(44.1052 1.37308 1.41928e-19)
(44.2994 1.48321 0)
(44.5145 1.5468 -1.86995e-19)
(44.7645 1.62395 -2.7745e-19)
(45.0349 1.69457 -1.09591e-19)
(45.3528 1.75916 1.38124e-19)
(45.7003 1.82675 5.17145e-19)
(46.0963 1.9007 2.23973e-19)
(46.5348 1.98513 3.42602e-19)
(47.0067 2.08796 -1.1944e-18)
(47.5226 2.2324 -1.03387e-18)
(48.0971 2.42581 1.32986e-18)
(48.7202 2.6646 -1.67085e-18)
(49.3415 2.95481 0)
(49.8871 3.21926 0)
(50.4349 3.45881 9.70296e-20)
(51.0455 3.71154 -1.80613e-18)
(51.7103 4.01034 2.2988e-18)
(52.41 4.31712 4.15773e-18)
(53.0643 4.5588 -1.56707e-18)
(53.6813 4.80518 -3.89388e-18)
(54.2817 5.13201 -4.52976e-18)
(54.8629 5.39306 -2.73507e-18)
(55.6573 5.68266 -1.43647e-19)
(56.1134 5.84679 3.27936e-18)
(56.1549 5.93493 0)
(55.4757 5.9033 2.43665e-18)
(52.6133 5.63582 2.81413e-18)
(44.9275 4.43197 3.25948e-18)
(30.8232 2.32127 1.10585e-17)
(11.0634 -0.550874 -4.08752e-18)
(2.90162 -0.42118 0)
(0.270362 -0.117211 0)
(38.2964 -0.0949972 -1.62485e-20)
(41.9511 -0.293032 5.92555e-19)
(42.2119 -0.187119 -3.33588e-19)
(42.2733 -0.269877 7.23382e-19)
(42.3711 -0.131437 4.03127e-19)
(42.4736 -0.150531 -5.13779e-22)
(42.5919 -0.0276936 -1.40241e-20)
(42.7213 0.0407932 -4.25502e-19)
(42.8537 0.156451 -3.11343e-20)
(42.9964 0.268266 -2.925e-20)
(43.1332 0.393288 2.42282e-19)
(43.2681 0.521504 3.21454e-20)
(43.3906 0.6489 2.41125e-19)
(43.5089 0.771129 2.14269e-19)
(43.6356 0.880792 -1.27314e-20)
(43.7599 0.97683 1.42062e-20)
(43.8886 1.05349 0)
(44.0356 1.11339 -6.7099e-20)
(44.1947 1.16734 0)
(44.3989 1.21355 0)
(44.6488 1.22821 0)
(44.9229 1.24868 -2.06101e-19)
(45.2467 1.25873 7.54573e-19)
(45.6135 1.2705 -7.13846e-19)
(46.0312 1.29001 0)
(46.51 1.33402 -3.38058e-19)
(47.0347 1.39911 -1.2221e-18)
(47.6003 1.47846 -2.07116e-18)
(48.1859 1.5863 -2.02903e-18)
(48.7759 1.72581 1.66156e-18)
(49.4058 1.87688 -2.09284e-18)
(50.1381 2.12142 1.23067e-18)
(50.9079 2.44158 3.19603e-18)
(51.6145 2.79321 0)
(52.2123 3.10609 2.41796e-18)
(52.7433 3.37785 -5.59622e-18)
(53.314 3.70813 -1.48084e-19)
(53.9256 4.03584 3.85199e-18)
(54.5444 4.24444 2.27242e-18)
(55.2044 4.51177 0)
(55.7978 4.78908 2.9988e-18)
(55.9359 4.92958 -3.56918e-18)
(55.7629 4.96014 8.50697e-18)
(54.059 4.92636 0)
(49.1738 4.29181 -1.14346e-17)
(38.3695 2.89357 3.17448e-18)
(18.7447 0.0259178 -3.62891e-18)
(6.32023 -0.883897 -4.06753e-18)
(1.7788 -0.437182 9.06878e-18)
(0.272416 -0.13967 2.71724e-21)
(38.0339 -0.143299 5.54806e-19)
(41.9024 -0.346572 -6.2689e-19)
(42.1551 -0.247396 6.86499e-19)
(42.219 -0.36179 -1.46909e-18)
(42.3251 -0.27534 8.36655e-19)
(42.4268 -0.322119 -5.34594e-20)
(42.5606 -0.229906 5.00041e-19)
(42.7187 -0.210063 0)
(42.8595 -0.107383 5.29537e-19)
(43.0224 -0.0180872 -5.84037e-19)
(43.1823 0.0926582 3.38772e-21)
(43.3349 0.218965 3.55199e-20)
(43.4893 0.348997 -2.40316e-19)
(43.6338 0.4838 4.74405e-20)
(43.7817 0.615466 -2.08058e-19)
(43.9262 0.742949 -2.17501e-20)
(44.0587 0.858247 0)