/*--------------------------------*- C++ -*----------------------------------*\
| =========                 |                                                 |
| \\      /  F ield         | OpenFOAM: The Open Source CFD Toolbox           |
|  \\    /   O peration     | Version:  v1912                                 |
|   \\  /    A nd           | Website:  www.openfoam.com                      |
|    \\/     M anipulation  |                                                 |
\*---------------------------------------------------------------------------*/
FoamFile
{
    version     2.0;
    format      ascii;
    class       volScalarField;
    location    "0.38";
    object      p;
}
// * * * * * * * * * * * * * * * * * * * * * * * * * * * * * * * * * * * * * //

dimensions      [0 2 -2 0 0 0 0];


internalField   nonuniform List<scalar> 
6600
(
185.167
180.945
179.006
177.711
177.045
176.953
176.975
177.083
177.388
178.002
178.926
180.154
181.765
183.677
185.832
188.316
191.131
194.188
197.515
201.069
204.92
208.974
213.23
217.688
222.358
227.198
232.086
236.893
241.451
245.579
249.182
252.164
254.228
254.913
254.088
251.529
246.853
239.721
229.57
215.655
197.274
173.709
144.419
108.758
65.7204
14.2625
-45.8469
-114.945
-196.981
-286.539
182.9
179.017
177.835
176.779
176.049
175.784
175.718
175.776
175.996
176.494
177.347
178.513
179.838
181.504
183.385
185.537
187.964
190.719
193.643
196.762
200.115
203.63
207.223
210.818
214.498
218.22
221.895
225.448
228.567
231.086
232.86
233.754
233.517
231.769
228.212
222.648
214.629
203.794
189.688
171.489
148.575
120.24
85.7378
44.4103
-4.72895
-62.7501
-129.62
-205.466
-292.35
-385.386
180.124
176.558
176.166
175.324
174.696
174.329
174.14
174.178
174.512
175.051
175.808
176.926
178.218
179.669
181.352
183.259
185.304
187.601
190.097
192.732
195.457
198.327
201.292
204.198
207.019
209.656
211.994
213.876
215.275
215.988
215.788
214.479
211.826
207.448
201.015
192.229
180.691
165.941
147.71
125.09
97.3961
63.9388
24.1214
-22.7773
-77.6789
-141.494
-214.328
-295.359
-384.059
-475.214
177.195
173.899
174.132
173.217
172.734
172.396
172.186
172.184
172.498
173.145
173.962
174.899
176.089
177.389
178.852
180.494
182.31
184.161
186.131
188.262
190.407
192.529
194.582
196.589
198.399
199.797
200.739
201.115
200.774
199.554
197.249
193.582
188.361
181.207
171.822
159.736
144.543
125.856
103.185
75.9332
43.5579
5.37381
-39.3286
-91.2417
-150.951
-219.371
-296.579
-380.762
-469.466
-556.109
174.27
171.154
171.732
170.379
170.119
169.779
169.623
169.688
169.946
170.446
171.205
172.12
173.1
174.203
175.4
176.69
178.128
179.615
181.051
182.48
183.92
185.317
186.592
187.533
188.146
188.254
187.614
186.394
184.296
181.068
176.537
170.453
162.521
152.498
139.984
124.533
105.755
83.2405
56.5537
25.154
-11.5853
-54.1816
-103.086
-158.881
-222.043
-293.381
-372.893
-458.393
-545.713
-626.237
171.347
168.239
168.995
167.192
167.106
166.708
166.555
166.636
166.882
167.233
167.685
168.3
169.039
169.879
170.79
171.727
172.668
173.634
174.555
175.362
176.011
176.444
176.676
176.434
175.612
174.359
172.427
169.431
165.39
160.098
153.356
144.823
134.226
121.35
105.799
87.1599
65.0192
38.9695
8.58017
-26.5087
-66.6976
-112.53
-164.491
-222.901
-288.029
-360.587
-440.653
-525.992
-610.487
-682.916
168.192
165.063
165.929
163.957
163.911
163.443
163.251
163.201
163.251
163.411
163.651
163.904
164.236
164.654
165.151
165.628
166.039
166.349
166.501
166.481
166.262
165.826
164.877
163.529
161.431
158.549
154.936
150.299
144.358
136.951
127.919
116.984
103.837
88.1747
69.7061
48.0855
22.9881
-5.97848
-39.1732
-77.023
-119.923
-168.095
-221.771
-281.296
-346.893
-419.05
-497.974
-581.522
-661.659
-723.962
164.656
161.577
162.436
160.541
160.512
159.894
159.643
159.448
159.27
159.118
159.041
159.02
158.993
158.945
158.854
158.695
158.442
158.056
157.492
156.643
155.404
153.684
151.513
148.759
145.352
141.026
135.634
129.188
121.426
112.064
100.905
87.6571
72.0888
53.9821
33.0518
8.98449
-18.5515
-49.87
-85.2867
-125.023
-169.33
-218.53
-272.814
-332.276
-397.132
-467.829
-544.22
-623.983
-698.177
-748.661
160.873
157.962
158.629
156.747
156.683
155.901
155.452
155.052
154.658
154.301
153.939
153.547
153.108
152.59
151.957
151.168
150.168
148.892
147.328
145.453
143.285
140.527
137.189
133.074
128.135
122.265
115.282
107.009
97.3425
86.0699
72.8955
57.5823
39.8953
19.6383
-3.38996
-29.4245
-58.7479
-91.6255
-128.273
-168.968
-213.899
-263.112
-316.701
-374.812
-437.634
-505.668
-578.498
-653.28
-720.152
-758.113
156.594
154.001
154.22
152.417
152.279
151.369
150.826
150.186
149.525
148.877
148.198
147.415
146.499
145.405
144.145
142.696
141.033
139.069
136.711
133.82
130.369
126.427
121.685
116.169
109.863
102.485
93.9036
84.0962
72.7046
59.6103
44.6112
27.5221
8.17276
-13.6535
-38.1607
-65.5626
-96.0475
-129.809
-167.02
-207.771
-252.197
-300.433
-352.52
-408.443
-468.303
-532.553
-601.281
-670.266
-728.57
-755.118
151.785
149.309
149.611
147.746
147.425
146.253
145.597
144.76
143.84
142.864
141.746
140.478
139.054
137.446
135.568
133.394
130.875
127.985
124.669
120.929
116.595
111.532
105.755
99.0266
91.2409
82.44
72.4015
60.9171
47.9515
33.335
16.8204
-1.67353
-22.3689
-45.3985
-70.8948
-99.0676
-130.085
-164.006
-200.912
-240.942
-284.141
-330.491
-380.015
-432.747
-488.748
-548.273
-611.774
-674.971
-726.359
-744.012
146.403
144.29
144.581
142.731
142.372
141.026
140.159
138.994
137.76
136.395
134.811
133.032
131.012
128.759
126.212
123.329
120.069
116.436
112.228
107.353
101.887
95.6969
88.7266
80.954
72.0701
61.9599
50.7077
38.0986
23.8467
7.86443
-9.81911
-29.3728
-50.9476
-74.6964
-100.744
-129.149
-160.002
-193.433
-229.462
-268.075
-309.293
-353.056
-399.357
-448.166
-499.374
-553.674
-610.376
-666.584
-712.38
-727.417
140.798
139.083
139.388
137.242
136.932
135.529
134.505
132.998
131.425
129.611
127.556
125.265
122.698
119.79
116.539
112.869
108.673
104.004
98.9588
93.3514
86.997
79.9243
71.9823
63.0511
53.1635
42.0737
29.5644
15.6972
0.600496
-16.2139
-34.7405
-55.0509
-77.2447
-101.349
-127.418
-155.604
-185.94
-218.342
-252.795
-289.323
-327.914
-368.509
-410.93
-455.085
-500.763
-548.498
-596.725
-642.684
-678.056
-693.693
135.219
133.793
133.864
131.938
131.679
130.015
128.721
126.901
124.984
122.768
120.262
117.418
114.242
110.701
106.751
102.426
97.6561
92.2009
86.0289
79.3056
71.927
63.7957
54.8919
45.0671
34.1626
22.2076
9.11742
-5.37172
-21.4405
-38.9341
-57.9075
-78.5831
-100.938
-125.033
-150.873
-178.377
-207.575
-238.557
-271.19
-305.354
-340.963
-377.849
-415.853
-454.563
-494.287
-534.129
-572.033
-603.607
-622.009
-634.298
129.699
128.638
128.569
126.931
126.346
124.332
123.076
120.908
118.653
116.009
113.049
109.754
106.035
101.897
97.2783
92.0951
86.4318
80.3531
73.6348
66.1663
57.9535
48.9659
39.0899
28.3898
16.7315
3.86127
-10.2531
-25.3751
-41.8496
-59.7591
-79.1024
-99.8831
-122.16
-145.881
-171.037
-197.676
-225.688
-254.881
-285.216
-316.547
-348.761
-381.763
-415.16
-448.377
-481.506
-512.741
-539.903
-558.784
-563.884
-569.525
124.551
123.833
123.594
122.137
121.232
119.34
117.615
115.139
112.7
109.614
106.187
102.373
98.1546
93.4657
88.3239
82.6948
76.3723
69.3518
61.7526
53.4987
44.5135
34.777
24.1511
12.5478
0.0599592
-13.2711
-27.6831
-43.4316
-60.372
-78.4659
-97.9379
-118.725
-140.748
-164.002
-188.433
-213.913
-240.386
-267.789
-295.949
-324.764
-353.878
-383.001
-411.716
-440.029
-466.445
-489.612
-507.283
-517.336
-523.402
-525.522
119.925
119.522
119.126
117.77
116.589
114.612
112.646
110.073
107.208
103.829
100.036
95.7261
90.9595
85.7135
79.8885
73.5335
66.7096
59.2591
51.0855
42.1746
32.4924
22.0605
10.8978
-1.18893
-14.3347
-28.5305
-43.6485
-59.6528
-76.7727
-95.109
-114.583
-135.213
-156.988
-179.716
-203.315
-227.759
-252.921
-278.54
-304.46
-330.469
-356.555
-382.554
-407.84
-431.634
-453.042
-469.96
-480.188
-483.664
-491.015
-493.259
116.049
115.763
115.279
113.983
112.706
110.637
108.395
105.612
102.448
98.7924
94.6386
89.9852
84.7578
78.9876
72.7119
65.7715
58.1427
49.9272
41.1063
31.6316
21.434
10.3783
-1.48916
-14.1102
-27.5394
-41.875
-57.242
-73.6826
-91.0804
-109.49
-128.973
-149.48
-170.894
-193.207
-216.246
-239.756
-263.564
-287.611
-311.74
-335.979
-360.019
-383.329
-405.391
-425.893
-443.864
-456.639
-461.36
-463.317
-465.859
-470.001
112.972
112.916
112.274
110.969
109.586
107.544
105.135
102.152
98.7228
94.765
90.2829
85.2312
79.5981
73.3454
66.4125
58.9879
50.9519
42.167
32.6838
22.5013
11.6742
0.239051
-11.9878
-25.1232
-39.0821
-53.9066
-69.5558
-86.0134
-103.443
-121.946
-141.431
-161.86
-183.223
-205.219
-227.731
-250.654
-273.755
-296.777
-319.53
-341.751
-363.861
-385.531
-405.438
-423.399
-438.29
-447.557
-449.904
-453.291
-452.782
-455.711
110.805
110.644
110.144
108.876
107.322
105.274
102.823
99.7488
96.1554
91.9636
87.2044
81.8165
75.7847
69.162
61.8166
53.6234
44.8481
35.4752
25.4468
14.7314
3.23019
-8.91415
-21.6085
-35.0172
-49.2038
-64.1223
-79.9292
-96.6816
-114.237
-132.628
-152.038
-172.459
-193.727
-215.847
-238.457
-261.09
-283.448
-305.416
-327.232
-348.964
-369.869
-389.176
-407.05
-423.159
-434.425
-438.116
-441.268
-442.469
-444.073
-445.065
109.376
109.106
108.852
107.578
106.091
103.968
101.447
98.3473
94.6805
90.3699
85.4043
79.7541
73.3802
66.272
58.56
50.0576
40.711
30.5941
19.8159
8.42095
-3.55399
-16.2744
-29.7009
-43.7405
-58.3029
-73.5833
-89.4409
-105.977
-123.43
-141.899
-161.244
-181.627
-203.109
-225.357
-248.176
-271.297
-294.078
-316.079
-337.219
-357.484
-376.934
-394.775
-409.989
-422.052
-430.044
-432.471
-434.511
-435.277
-437.666
-438.169
108.746
108.276
108.219
106.992
105.753
103.644
101.114
98.0281
94.3359
89.996
84.9217
79.1078
72.5359
65.0818
56.7928
47.7982
37.9959
27.3255
15.8294
3.63141
-9.17677
-22.5194
-36.4222
-50.8235
-65.8854
-81.4937
-97.714
-114.476
-131.816
-149.903
-169.113
-189.441
-211.03
-233.983
-257.738
-281.514
-304.753
-326.935
-348.087
-367.849
-385.836
-401.688
-413.427
-419.283
-420.384
-425.659
-428.022
-430.897
-433.398
-434.037
108.593
108.049
108.339
107.048
106.093
104.124
101.766
98.7514
95.0933
90.7558
85.6403
79.715
72.9641
65.4193
56.8333
47.2946
36.9508
25.7017
13.5944
0.65769
-12.9759
-27.2966
-42.0882
-57.3158
-73.0107
-88.9766
-105.268
-122.032
-139.344
-157.34
-176.106
-196.154
-217.76
-241.054
-265.893
-291.514
-316.647
-340.425
-361.969
-380.625
-396.265
-410.085
-418.916
-419.359
-418.69
-419.784
-423.962
-428.378
-431.635
-432.453
108.544
108.11
108.692
107.589
106.97
105.108
103.151
100.298
96.8138
92.6003
87.5744
81.671
74.7561
66.9364
58.2162
48.3377
37.4438
25.556
12.7487
-1.00029
-15.5684
-30.814
-46.4598
-62.6692
-79.0777
-95.7009
-112.459
-129.424
-146.557
-164.122
-182.456
-201.871
-223.093
-246.786
-272.956
-300.596
-328.474
-355.212
-379.001
-398.095
-411.608
-419.484
-422.619
-422.577
-422.854
-422.415
-425.259
-428.494
-430.963
-432.092
108.366
108.377
108.979
108.441
108.097
106.341
104.839
102.325
99.2262
95.2154
90.3761
84.6211
77.8882
69.9338
60.9541
50.8646
39.5709
27.1566
13.5711
-1.08008
-16.5188
-33.0386
-50.0741
-67.1884
-84.585
-102.026
-119.448
-136.622
-153.877
-171.106
-188.621
-207.121
-227.361
-250.448
-277.35
-307.836
-339.992
-371.035
-398.507
-420.205
-433.17
-434.13
-425.112
-426.553
-426.383
-427.238
-428.043
-428.89
-429.967
-430.879
108.441
108.885
109.502
109.306
109.64
107.594
106.653
104.612
102.002
98.3795
93.8853
88.339
81.7376
73.9906
64.8812
54.5477
42.8843
29.9374
15.6845
0.0349274
-16.5486
-34.0876
-52.3524
-71.0003
-89.691
-108.217
-126.482
-144.384
-161.619
-178.491
-195.162
-212.066
-230.487
-252.167
-278.888
-311.285
-348.431
-386.687
-421.058
-445.993
-455.566
-450.037
-440.467
-432.957
-433.319
-432.526
-430.76
-429.31
-428.731
-428.786
107.887
109.761
109.949
110.246
110.465
109.636
108.666
107.105
104.89
101.782
97.789
92.6844
86.3744
78.8775
69.9466
59.5496
47.6396
34.2687
19.4249
3.03687
-14.7337
-33.8132
-53.6282
-73.9735
-94.4115
-114.592
-133.952
-152.622
-170.324
-187.049
-202.841
-218
-233.743
-252.156
-276.654
-309.696
-350.897
-398.329
-445.858
-480.473
-483.92
-461.95
-454.38
-446.839
-443.628
-438.919
-434.126
-429.667
-426.929
-425.933
105.967
110.608
110.217
110.835
111.512
111.328
110.668
109.494
107.685
105.178
101.679
97.0703
91.2985
84.1092
75.4674
65.1926
53.1308
39.2146
23.674
6.6004
-12.0859
-32.2318
-53.931
-76.1523
-98.6954
-120.781
-142.095
-162.006
-180.367
-197.095
-212.04
-225.264
-237.405
-251.044
-270.468
-301
-344.352
-400.545
-464.601
-515.212
-520.989
-490.772
-470.969
-465.117
-457.011
-448.74
-440.313
-432.544
-427.252
-424.671
101.683
111.282
110.07
111.515
112.538
112.744
112.524
111.737
110.372
108.219
105.431
101.395
96.2384
89.5779
81.4473
71.5738
59.7356
45.6309
29.3958
11.1619
-8.80026
-30.1365
-53.1761
-77.5261
-102.523
-127.266
-150.653
-172.306
-192.011
-209.14
-223.855
-235.119
-243.971
-251.141
-261.358
-281.832
-324.954
-395.321
-482.714
-548.469
-548.157
-534.093
-501.644
-494.589
-485.025
-472.591
-458.684
-445.482
-436.171
-431.233
84.2713
109.071
109.7
112.165
113.496
113.667
113.834
113.32
112.459
110.788
108.254
104.835
100.209
94.2308
86.4988
76.9432
65.5108
51.5336
34.8127
16.0655
-4.81307
-27.8929
-52.5329
-78.7765
-106.271
-134.173
-160.552
-184.303
-205.966
-224.307
-238.068
-247.925
-254.029
-255.164
-252.026
-256.346
-284.953
-350.466
-451.271
-545.231
-562.837
-555.614
-538.596
-537.854
-534.551
-521.822
-501.455
-479.562
-464.09
-456.465
87.9717
83.3744
81.1788
79.7137
78.6379
77.8069
77.0585
76.326
75.5839
74.7948
73.9612
73.0908
72.3503
71.5086
70.4283
69.0681
67.7304
66.3363
64.7086
62.9986
61.1667
58.8592
56.4122
53.7999
50.8738
47.5631
43.8579
39.6166
35.3521
30.7605
25.1923
18.6679
11.2885
2.81834
-6.98335
-18.366
-31.7268
-47.5179
-66.1428
-88.0989
-113.98
-144.466
-180.17
-221.856
-270.436
-326.897
-391.668
-463.804
-550.755
-644.01
84.8044
80.0898
78.3014
76.5385
75.0288
73.7926
72.649
71.5401
70.4332
69.3147
68.1549
66.8819
65.61
64.3233
62.8289
60.8844
58.751
56.521
54.1149
51.3517
48.514
45.439
41.9455
38.001
33.6224
28.736
23.4331
17.289
10.4907
3.31138
-4.67485
-13.8142
-24.156
-35.9324
-49.4618
-64.9661
-82.7554
-103.272
-127.016
-154.522
-186.414
-223.385
-266.147
-315.334
-371.883
-436.733
-510.264
-591.178
-685.248
-787.282
80.4522
75.5967
74.1432
72.2544
70.5361
69.0419
67.5987
66.1116
64.5793
62.9873
61.3705
59.6675
57.7375
55.6355
53.4289
51.0132
48.2322
45.1191
41.8006
38.1475
34.0274
29.5433
24.8392
19.615
13.7095
7.06643
-0.240721
-8.13023
-17.0599
-26.9736
-37.9538
-50.1616
-63.7312
-78.9748
-96.2881
-115.998
-138.45
-164.032
-193.145
-226.392
-264.472
-308.072
-357.809
-414.266
-478.413
-551.23
-632.989
-722.41
-820.591
-924.643
75.4423
70.3859
69.2345
67.0586
65.2364
63.4846
61.7396
59.9876
58.1668
56.2304
54.1306
51.9075
49.4713
46.7674
43.646
40.3113
36.6977
32.7687
28.3103
23.4819
18.311
12.4274
5.94791
-0.989798
-8.58356
-16.9371
-26.2864
-36.5223
-47.8164
-60.3299
-74.2021
-89.6699
-106.853
-125.92
-147.296
-171.361
-198.508
-229.241
-263.862
-302.993
-347.288
-397.353
-453.845
-517.331
-588.609
-668.482
-757.181
-852.941
-953.762
-1056
69.7872
64.5365
63.7706
61.2944
59.376
57.4723
55.4623
53.3851
51.2304
48.9533
46.4712
43.7268
40.7032
37.4075
33.7389
29.6013
25.0074
20.055
14.693
8.54753
1.79342
-5.55285
-13.7351
-22.6642
-32.3909
-42.9649
-54.4186
-67.0123
-80.826
-96.1563
-113.144
-131.989
-152.862
-175.946
-201.583
-230.199
-262.18
-297.972
-338.018
-382.928
-433.22
-489.391
-552.064
-621.806
-699.172
-785.01
-879.418
-979.82
-1082.41
-1181.52
63.6117
58.164
57.679
54.7639
52.8147
50.7421
48.5634
46.2652
43.8225
41.1655
38.242
35.0108
31.4975
27.4077
22.9818
18.1709
12.7691
6.53018
-0.269818
-7.41031
-15.3935
-24.4191
-34.3086
-45.1523
-56.982
-69.8334
-83.9343
-99.2694
-115.948
-134.176
-154.243
-176.481
-201.065
-228.239
-258.275
-291.462
-328.201
-369.025
-414.43
-464.794
-520.507
-582.179
-650.301
-725.335
-807.606
-897.779
-996.035
-1100.03
-1204.13
-1299.39
56.9681
51.4908
51.2142
47.6123
45.8144
43.5162
41.0415
38.432
35.6259
32.5765
29.173
25.3559
21.1222
16.5001
11.2853
5.52753
-0.83885
-7.73789
-15.9107
-24.7829
-34.3308
-44.8765
-56.4912
-69.27
-83.2897
-98.4087
-114.866
-132.877
-152.584
-174.116
-197.615
-223.321
-251.56
-282.629
-316.834
-354.467
-395.853
-441.421
-491.617
-546.802
-607.388
-673.736
-746.317
-825.404
-911.242
-1004.55
-1105.69
-1212.12
-1316.55
-1406.42
49.699
44.3702
44.1067
40.09
38.3925
35.861
33.2027
30.2712
27.0308
23.4391
19.4959
15.1297
10.0888
4.57858
-1.5368
-8.30593
-16.0053
-24.2472
-33.2007
-43.371
-54.6137
-66.872
-80.2725
-94.8647
-110.908
-128.564
-147.702
-168.501
-191.096
-215.719
-242.578
-271.814
-303.678
-338.518
-376.678
-418.419
-464.041
-513.91
-568.364
-627.674
-692.258
-762.49
-838.535
-920.648
-1008.95
-1104.07
-1206.71
-1314.47
-1418.09
-1500.18
41.8491
37.0144
36.3865
32.6958
30.8083
27.9554
24.9925
21.7472
18.1311
14.0254
9.37642
4.23637
-1.39996
-7.77148
-14.8874
-22.7274
-31.3699
-41.2327
-51.8399
-63.4986
-76.3823
-90.4823
-105.905
-122.663
-140.758
-160.515
-182.106
-205.629
-231.187
-258.956
-289.055
-321.708
-357.162
-395.595
-437.349
-482.77
-532.093
-585.567
-643.488
-706.227
-773.985
-847
-925.531
-1009.66
-1099.54
-1195.55
-1298.32
-1405.5
-1505.89
-1577.43
33.851
29.5346
28.6746
25.2569
23.2609
20.2217
16.9626
13.3037
9.22015
4.6772
-0.458822
-6.36831
-12.932
-20.2253
-28.3363
-37.5009
-47.4262
-58.4179
-70.5938
-83.8452
-98.3725
-114.3
-131.661
-150.685
-171.343
-193.646
-217.814
-243.979
-272.299
-302.971
-336.183
-372.031
-410.705
-452.453
-497.477
-546.038
-598.457
-655.016
-715.868
-781.145
-851.227
-926.254
-1006.33
-1091.57
-1182.04
-1278.18
-1379.91
-1484.44
-1580.21
-1639.88
25.664
22.1405
21.1464
17.8827
15.6539
12.4638
9.02842
5.10659
0.597903
-4.54226
-10.2689
-16.6632
-23.9551
-32.1387
-41.1903
-51.2772
-62.6262
-75.1217
-88.9739
-104.05
-120.438
-138.276
-157.678
-178.719
-201.582
-226.362
-253.099
-281.979
-313.115
-346.6
-382.619
-421.419
-463.148
-507.912
-555.92
-607.348
-662.363
-721.199
-784.164
-851.471
-923.071
-999.213
-1080.02
-1165.55
-1255.81
-1350.93
-1450.32
-1550.74
-1640.41
-1688.85
17.7526
14.5498
13.6772
10.573
8.30275
4.97628
1.32671
-2.82642
-7.54543
-12.9784
-19.3053
-26.4112
-34.4132
-43.336
-53.4331
-64.5563
-76.932
-90.5669
-105.641
-122.305
-140.555
-160.392
-181.996
-205.391
-230.616
-257.819
-287.118
-318.568
-352.322
-388.597
-427.484
-468.966
-513.229
-560.519
-610.95
-664.682
-721.922
-782.844
-847.461
-915.875
-988.381
-1064.95
-1145.71
-1230.64
-1319.78
-1413.3
-1510.55
-1606.48
-1688.6
-1726.9
9.67678
7.30967
6.38568
3.5365
1.27031
-2.04962
-5.74985
-10.1215
-15.2167
-20.9738
-27.5078
-35.0447
-43.5184
-53.1408
-63.9451
-76.0985
-89.6532
-104.635
-121.097
-139.166
-158.937
-180.527
-203.95
-229.374
-256.883
-286.45
-318.2
-352.23
-388.54
-427.22
-468.475
-512.549
-559.445
-609.16
-661.86
-717.645
-776.572
-838.744
-904.424
-973.705
-1046.51
-1123
-1203.16
-1286.99
-1374.41
-1465.59
-1559.33
-1650.55
-1725.8
-1755.27
1.99372
0.476193
-0.283021
-2.77615
-5.01126
-8.33476
-12.0249
-16.325
-21.453
-27.5692
-34.5249
-42.4771
-51.4244
-61.5809
-72.9148
-85.7085
-99.9964
-115.861
-133.46
-152.914
-174.261
-197.583
-222.92
-250.313
-279.822
-311.612
-345.638
-381.983
-420.802
-462.151
-505.958
-552.179
-601.054
-652.76
-707.259
-764.641
-825.017
-888.462
-954.888
-1024.38
-1097.05
-1172.83
-1251.82
-1333.95
-1419.3
-1507.83
-1597.96
-1684.46
-1753.12
-1774.81
-4.60245
-5.65566
-6.28728
-8.39944
-10.3677
-13.5032
-17.1742
-21.5726
-26.658
-32.572
-39.5825
-47.6029
-56.8869
-67.3346
-79.2786
-92.7161
-107.783
-124.6
-143.144
-163.558
-186.06
-210.729
-237.594
-266.789
-298.292
-332.143
-368.446
-407.086
-448.042
-491.402
-537.377
-586.022
-637.157
-690.779
-747.028
-805.879
-867.349
-931.448
-998.263
-1067.75
-1139.95
-1214.84
-1292.3
-1372.39
-1455.16
-1540.19
-1625.37
-1705.22
-1765.3
-1783.3
-10.1795
-10.8661
-11.3975
-13.2551
-14.9653
-17.6789
-20.8586
-24.9543
-30.0669
-35.9572
-42.8726
-50.941
-60.203
-70.7672
-82.8006
-96.389
-111.752
-129.099
-148.533
-170.051
-193.67
-219.569
-247.851
-278.539
-311.735
-347.426
-385.644
-426.492
-469.928
-515.798
-563.964
-614.434
-667.361
-722.73
-780.442
-840.563
-903.029
-967.81
-1034.88
-1104.21
-1175.66
-1249.31
-1325.06
-1402.64
-1481.92
-1562.83
-1640.84
-1710.53
-1758.1
-1774.64
-15.1751
-15.4215
-15.6469
-17.0953
-18.5482
-20.9862
-23.8014
-27.2584
-31.6065
-37.067
-43.5033
-51.2197
-60.2157
-70.8546
-82.9685
-96.7488
-112.339
-129.835
-149.471
-171.469
-195.943
-222.876
-252.411
-284.613
-319.456
-357.02
-397.237
-439.996
-485.302
-533.193
-583.628
-636.431
-691.411
-748.583
-807.94
-869.334
-932.798
-998.319
-1065.63
-1134.54
-1205.09
-1277.1
-1350.66
-1425.91
-1501.75
-1576.36
-1645.84
-1701.62
-1733.45
-1746.96
-19.4912
-19.27
-19.3639
-20.2997
-21.1436
-22.9339
-25.2064
-28.2561
-31.9741
-36.654
-42.516
-49.4258
-57.7977
-67.6659
-79.2613
-92.6769
-108.148
-125.859
-145.843
-168.164
-193.044
-220.689
-251.069
-284.366
-320.645
-359.812
-401.94
-446.96
-494.691
-544.906
-597.51
-652.4
-709.461
-768.499
-829.432
-892.24
-956.767
-1022.75
-1090.29
-1159.28
-1229.28
-1300.12
-1371.4
-1443.05
-1515.46
-1584.36
-1644.11
-1687.28
-1704.56
-1713.7
-23.3625
-22.5314
-22.3934
-22.9184
-23.3025
-24.3952
-25.7882
-27.9038
-30.8495
-34.4875
-39.1816
-45.0841
-52.5718
-61.5942
-72.5739
-85.333
-99.908
-116.906
-136.61
-159.112
-184.334
-212.461
-243.736
-278.06
-315.524
-356.202
-400.032
-446.947
-496.762
-549.363
-604.531
-661.961
-721.334
-782.522
-845.475
-910.001
-975.838
-1043.14
-1111.46
-1180.33
-1249.66
-1319.29
-1389.27
-1458.42
-1525.34
-1588.05
-1642.85
-1679.97
-1692.61
-1694.78
-27.1473
-25.7902
-25.4152
-25.2018
-24.9349
-25.3639
-25.9884
-27.1196
-28.9513
-31.5974
-35.07
-39.7127
-45.5658
-53.1015
-62.4454
-73.8819
-87.6474
-103.864
-122.661
-144.462
-169.577
-197.854
-229.496
-264.649
-303.3
-345.444
-391.055
-440.061
-492.278
-547.405
-605.211
-665.414
-727.6
-791.445
-856.628
-922.987
-990.684
-1059.06
-1128.01
-1197.67
-1267.54
-1336.98
-1405.81
-1473.89
-1539.22
-1597.01
-1642.85
-1671.53
-1684.46
-1683.27
-31.0239
-29.1808
-28.6006
-27.6415
-26.7114
-26.2603
-25.9698
-26.1558
-26.7495
-27.9286
-29.9086
-32.9823
-37.1907
-42.8659
-50.1858
-59.5497
-71.7884
-86.8734
-104.722
-125.543
-149.838
-177.844
-209.47
-244.919
-284.309
-327.621
-374.904
-425.982
-480.587
-538.479
-599.34
-662.722
-728.085
-794.888
-862.991
-932.244
-1001.94
-1072.34
-1143.33
-1214.04
-1284.45
-1354.98
-1424.01
-1490.89
-1552.95
-1609.27
-1649.79
-1664.68
-1671.72
-1672.61
-35.0684
-32.6741
-31.8283
-30.1977
-28.6931
-27.4603
-26.2191
-25.2898
-24.7148
-24.5504
-24.9329
-26.0856
-28.4245
-32.0406
-37.2633
-44.4387
-54.25
-67.0087
-82.973
-102.355
-125.323
-152.38
-183.651
-219.117
-258.933
-303.136
-351.765
-404.84
-462.043
-522.913
-587.085
-654.084
-723.108
-793.8
-865.537
-937.669
-1010.48
-1083.5
-1156.14
-1228.7
-1300.8
-1372.17
-1442.34
-1509.4
-1569.59
-1616.97
-1649.91
-1663.99
-1663.65
-1665.23
-39.731
-36.3056
-35.3461
-33.1645
-31.1503
-29.2257
-27.0842
-25.0495
-23.1352
-21.4308
-20.1885
-19.4902
-19.6087
-20.8957
-23.7402
-28.5299
-35.5745
-45.4617
-58.8087
-75.9922
-97.1055
-122.487
-152.633
-187.658
-227.578
-272.478
-322.251
-376.932
-436.47
-500.383
-568.194
-639.292
-713.021
-788.095
-863.723
-940.02
-1016.5
-1092.52
-1168.2
-1243.36
-1318.15
-1390.86
-1461.59
-1526.08
-1584.3
-1629.34
-1647.39
-1657.34
-1657.44
-1658.4
-44.2485
-40.5691
-39.2414
-36.5899
-34.2355
-31.7406
-28.9078
-26.0578
-23.038
-19.804
-16.7484
-14.0095
-11.7262
-10.4109
-10.4512
-12.3481
-16.4376
-23.2382
-33.3304
-47.3582
-65.8947
-89.0859
-117.312
-151.159
-190.63
-235.742
-286.483
-342.839
-404.687
-471.775
-543.339
-618.842
-697.121
-777.285
-858.794
-940.127
-1020.49
-1100.69
-1180.12
-1257.33
-1333.15
-1408.22
-1478.96
-1544.32
-1596.93
-1632.02
-1649.1
-1650.35
-1651.71
-1652.02
-48.289
-44.7374
-43.7279
-40.7747
-38.1992
-35.2526
-31.7986
-28.179
-24.1773
-19.8124
-15.2355
-10.5589
-6.00276
-1.97294
1.07037
2.53331
1.79614
-1.57043
-8.10135
-18.4734
-33.4902
-53.706
-79.4064
-111.134
-149.348
-194.038
-245.122
-302.527
-366.39
-436.386
-511.96
-592.109
-676.207
-762.982
-849.849
-936.438
-1023.14
-1107.8
-1189.83
-1271.53
-1351
-1427.21
-1497.59
-1560.15
-1610.94
-1632.45
-1643.78
-1644.15
-1645.39
-1645.71
-52.8411
-48.6293
-48.6498
-45.0339
-42.8289
-39.7882
-36.0357
-31.9229
-27.1524
-21.8879
-16.0359
-9.59049
-2.90285
3.81972
10.0647
15.2125
18.4885
19.3135
16.9171
10.5649
-0.407844
-16.8986
-39.529
-68.5927
-104.634
-148.046
-198.951
-257.158
-322.598
-395.355
-474.978
-560.497
-650.447
-743.088
-837.621
-931.849
-1023.68
-1113.86
-1202.01
-1286.92
-1368.19
-1443.56
-1515.78
-1576.36
-1612.93
-1633.91
-1636.98
-1638.85
-1639.67
-1639.95
-58.1411
-52.4998
-53.5281
-49.3501
-47.4919
-44.4262
-40.8313
-36.7317
-31.6343
-25.7955
-19.1134
-11.4473
-3.00697
6.07118
15.2937
23.951
31.3152
36.505
38.8264
37.4714
31.479
19.741
1.37018
-24.2213
-57.5023
-98.8858
-148.553
-206.835
-273.594
-348.921
-432.226
-522.587
-618.858
-719.97
-823.178
-925.024
-1024.58
-1121.74
-1215.39
-1303.35
-1385.65
-1464.1
-1534.04
-1589.8
-1616.97
-1629.28
-1632.14
-1633.63
-1634.2
-1634.37
-63.8423
-56.0543
-58.203
-54.1433
-52.3941
-49.3882
-46.0057
-42.2386
-37.3877
-31.5112
-24.4233
-16.0584
-6.28921
4.84207
17.0113
29.31
40.8472
50.7881
58.1596
62.128
61.448
55.075
41.7549
20.5499
-9.03977
-47.5958
-95.627
-153.129
-220.454
-297.644
-385.251
-481.75
-585.137
-694.141
-805.793
-917.868
-1027.22
-1131.44
-1230.28
-1324
-1408.46
-1483.79
-1552.4
-1593.65
-1619.22
-1623.64
-1626.86
-1627.96
-1628.43
-1628.48
-71.0288
-59.9498
-63.1743
-59.0823
-57.5585
-54.8431
-51.4369
-47.7196
-43.3444
-37.9496
-30.8974
-22.4457
-12.2996
-0.184399
14.0918
29.7282
44.7768
59.0475
71.9225
82.0464
87.5592
87.3463
79.5412
63.4875
38.6803
4.44372
-40.3635
-96.5597
-164.173
-243.108
-333.91
-436.725
-548.562
-666.624
-790.046
-912.835
-1030.63
-1145.11
-1250.69
-1347.15
-1437.02
-1512.43
-1566.12
-1598.71
-1613.09
-1618.25
-1620.83
-1621.86
-1622.4
-1622.5
-95.9429
-66.5079
-67.775
-63.8703
-62.8042
-60.4625
-57.3359
-54.0343
-49.7342
-44.6982
-38.3611
-30.3194
-20.3729
-7.90068
8.20981
27.6132
46.4317
63.6207
81.1214
97.6354
109.629
115.444
114.445
104.077
84.0501
53.7638
12.0227
-42.0911
-108.848
-188.968
-283.03
-392.194
-513.336
-642.486
-777.243
-911.801
-1043.19
-1165.69
-1279.39
-1378.52
-1460.99
-1535.78
-1572.81
-1596.2
-1605.78
-1611.52
-1614.67
-1616.06
-1616.79
-1617.12
-88.3698
-66.1499
-65.8404
-65.2066
-64.5894
-63.1867
-61.0457
-58.7394
-55.7959
-51.7888
-46.3572
-39.2472
-30.0163
-18.2172
-2.79046
18.9052
44.8853
66.5724
86.3548
106.977
126.3
139.398
145.261
140.353
123.586
96.1847
56.7115
4.65786
-60.7749
-141.141
-238.487
-355.237
-487.813
-630.039
-776.083
-925.112
-1075.21
-1210.03
-1325.17
-1429.28
-1508.82
-1564.45
-1593.72
-1598.17
-1603.82
-1609.13
-1611.3
-1611.75
-1612.54
-1613.68
-78.3486
-71.2925
-68.7868
-68.0651
-66.9621
-65.4219
-64.1759
-62.3131
-59.5985
-56.3962
-51.9715
-45.1198
-35.7502
-21.9218
-1.59844
23.0789
49.7846
76.1413
102.014
125.44
147.169
162.969
169.222
166.423
150.773
121.726
79.8575
23.9645
-45.6469
-129.43
-231.435
-357.3
-505.611
-663.561
-829.311
-999.917
-1165.63
-1301.99
-1410.6
-1500.28
-1567.02
-1588.15
-1596.31
-1601.69
-1606.7
-1608.92
-1609.23
-1608.96
-1609.85
-1611.84
-75.0255
-75.7267
-73.5352
-71.1204
-70.2636
-69.0095
-67.4104
-65.6911
-64.0447
-61.1185
-57.2676
-50.5316
-38.2647
-20.3099
2.84939
30.8572
65.0216
98.3447
125.972
153.465
175.84
190.958
196.154
188.853
169.612
135.444
86.5548
23.1501
-55.9903
-151.134
-264.547
-402.028
-564.287
-749.099
-943.321
-1135.26
-1295.93
-1420.89
-1520.6
-1577.39
-1597.38
-1605.86
-1609.16
-1612.33
-1613.77
-1612.92
-1610.38
-1608.12
-1608.52
-1611.95
-77.5368
-79.4116
-78.4439
-77.4066
-75.6691
-73.9484
-73.2585
-72.4141
-71.1935
-70.0223
-67.0048
-59.5552
-47.2141
-27.1877
5.24187
44.5531
81.5966
112.035
144.117
176.405
201.117
217.111
222.718
211.945
184.537
142.36
83.783
9.09407
-82.4778
-192.331
-322.511
-483.424
-672.526
-880.785
-1095.54
-1283.48
-1429.84
-1546.77
-1613.14
-1635.31
-1639.44
-1639.47
-1638.37
-1635.75
-1630.93
-1622.99
-1614.95
-1610.06
-1610.15
-1615.36
-83.7285
-85.1548
-83.9005
-83.7057
-83.4752
-83.7326
-83.7689
-84.67
-85.6298
-86.4164
-87.606
-85.0452
-70.4275
-39.9745
2.14672
32.3692
68.7753
116.374
154.986
187.478
217.22
236.79
240.338
226.544
191.944
139.686
72.4692
-12.3858
-116.202
-242.732
-392.316
-575.389
-796.231
-1033.82
-1250.65
-1426.03
-1567.56
-1651.45
-1687.73
-1700.44
-1701.1
-1696.37
-1688.82
-1676.75
-1660.79
-1642.51
-1628.04
-1619.57
-1618.95
-1625.58
-91.5074
-91.4817
-91.4991
-91.9559
-92.5584
-93.959
-97.3328
-102.04
-108.456
-117.484
-126.194
-127.596
-110.368
-82.0206
-51.997
1.32145
48.0412
93.9834
143.71
186.865
220.796
241.232
243.131
222.392
180.03
123.339
48.665
-44.7861
-156.281
-297.874
-475.215
-683.546
-925.806
-1181.68
-1406.77
-1573.04
-1682.11
-1745.58
-1776.29
-1788.46
-1789.33
-1779.79
-1761.58
-1736.69
-1708.09
-1681.56
-1658
-1643.4
-1639.39
-1644.55
-103.099
-99.992
-99.3554
-100.063
-102.56
-108.65
-116.18
-127.457
-143.179
-162.43
-186.675
-207.812
-214.329
-181.901
-118.958
-60.3807
14.2158
69.6909
115.369
157.547
187.868
197.421
188.209
164.826
129.459
75.5973
-0.552418
-95.9086
-214.559
-370.74
-574.788
-818.03
-1081.87
-1344.9
-1567.23
-1711.42
-1800.89
-1860.64
-1894.8
-1905.36
-1901.55
-1881
-1848.49
-1808.92
-1768.04
-1729.76
-1697.76
-1675.67
-1666.01
-1667.64
-117.26
-114.463
-111.43
-112.417
-116.836
-125.07
-141.385
-163.981
-193.643
-238.75
-310.482
-375.656
-381.063
-314.16
-209.804
-117.377
-59.9019
2.54483
53.3449
92.5585
112.492
108.4
87.7433
55.9025
14.8343
-35.5426
-99.4074
-188.289
-311.058
-480.949
-703.695
-966.332
-1245.32
-1513.74
-1732.75
-1862.43
-1937.15
-1995.13
-2032.58
-2041.02
-2026.22
-1985.85
-1930.35
-1872.37
-1815.88
-1767.07
-1728.09
-1700.13
-1685.2
-1683.04
-137.246
-126.705
-124.463
-126.023
-135.989
-150.641
-177.215
-219.287
-280.109
-378.695
-512.698
-621.764
-600.657
-492.665
-352.186