/*--------------------------------*- C++ -*----------------------------------*\
| =========                 |                                                 |
| \\      /  F ield         | OpenFOAM: The Open Source CFD Toolbox           |
|  \\    /   O peration     | Version:  v1912                                 |
|   \\  /    A nd           | Website:  www.openfoam.com                      |
|    \\/     M anipulation  |                                                 |
\*---------------------------------------------------------------------------*/
FoamFile
{
    version     2.0;
    format      ascii;
    class       surfaceScalarField;
    location    "0.38";
    object      phi;
}
// * * * * * * * * * * * * * * * * * * * * * * * * * * * * * * * * * * * * * //

dimensions      [0 3 -1 0 0 0 0];
oriented        oriented;


internalField   nonuniform List<scalar> 
13060
(
0.00638841
0.987743
-0.994131
0.00893672
0.944155
-0.946703
0.0108119
0.897831
-0.899706
0.0121976
0.853712
-0.855097
0.0129232
0.812454
-0.813179
0.0131893
0.774006
-0.774272
0.0133332
0.737514
-0.737657
0.0136021
0.702523
-0.702792
0.0139175
0.669272
-0.669587
0.0141949
0.637671
-0.637949
0.014564
0.607357
-0.607726
0.0151869
0.578315
-0.578938
0.0158021
0.550682
-0.551297
0.0163977
0.5242
-0.524795
0.0169981
0.498791
-0.499391
0.0175821
0.474601
-0.475185
0.0179594
0.451559
-0.451937
0.0183047
0.429519
-0.429864
0.0185548
0.408432
-0.408682
0.0187103
0.388322
-0.388478
0.0188823
0.369093
-0.369265
0.0190736
0.350787
-0.350978
0.0191795
0.333517
-0.333623
0.0190952
0.317146
-0.317062
0.0188486
0.301494
-0.301247
0.0184348
0.286764
-0.28635
0.0179146
0.272797
-0.272277
0.0173546
0.259404
-0.258844
0.0167715
0.246784
-0.246201
0.0161776
0.23485
-0.234256
0.015506
0.223526
-0.222855
0.0147151
0.212885
-0.212094
0.013827
0.202877
-0.201989
0.0128399
0.193353
-0.192366
0.0117634
0.184255
-0.183178
0.0107569
0.175827
-0.174821
0.00986398
0.167986
-0.167093
0.00895354
0.160493
-0.159582
0.00799939
0.153447
-0.152493
0.00692925
0.146919
-0.145849
0.00571438
0.140752
-0.139537
0.00448816
0.134923
-0.133697
0.0032878
0.129401
-0.1282
0.0021815
0.124216
-0.123109
0.00113421
0.119303
-0.118255
0.000224762
0.114819
-0.11391
-0.000771704
0.110122
-0.109125
-0.00173048
0.106682
-0.105723
-0.00181057
0.0982169
-0.0981368
0.06883
-0.0706406
0.00635866
0.981384
0.00802367
0.94249
0.00911436
0.896741
0.00954293
0.853283
0.00963187
0.812365
0.00989001
0.773748
0.0101719
0.737232
0.0102769
0.702418
0.0103357
0.669213
0.0104657
0.637541
0.0106424
0.607181
0.0109145
0.578043
0.011225
0.550372
0.0115947
0.52383
0.0119946
0.498391
0.0125047
0.474091
0.0130486
0.451015
0.0135817
0.428986
0.0140572
0.407957
0.0144142
0.387965
0.0144982
0.369009
0.0144051
0.35088
0.0142136
0.333709
0.0139753
0.317384
0.0137696
0.3017
0.0135993
0.286934
0.0134019
0.272995
0.0130468
0.259759
0.0124744
0.247357
0.0117476
0.235577
0.0109531
0.224321
0.010147
0.213691
0.0093519
0.203672
0.00852774
0.194178
0.00763302
0.18515
0.0066863
0.176774
0.0056212
0.169051
0.00452001
0.161594
0.00346621
0.154501
0.00249221
0.147893
0.00163946
0.141604
0.00085271
0.13571
9.76378e-05
0.130156
-0.000707542
0.125021
-0.00146979
0.120065
-0.00214831
0.115498
-0.00280616
0.11078
-0.00297695
0.106853
-0.00235706
0.097597
0.066473
0.00648488
0.974899
0.00786681
0.941108
0.00839287
0.896214
0.00830633
0.85337
0.007869
0.812802
0.00747762
0.774139
0.00729664
0.737413
0.00736613
0.702348
0.00752144
0.669058
0.00769476
0.637368
0.00804893
0.606826
0.00845879
0.577634
0.00887667
0.549954
0.0092398
0.523467
0.00955458
0.498076
0.0097274
0.473918
0.00981038
0.450932
0.00982407
0.428972
0.00977183
0.408009
0.00975962
0.387978
0.0097628
0.369006
0.0097718
0.350871
0.00967449
0.333806
0.00938994
0.317669
0.00886953
0.30222
0.00816719
0.287637
0.00747225
0.273689
0.00677826
0.260453
0.00614873
0.247986
0.00554887
0.236177
0.00490808
0.224961
0.00415516
0.214444
0.00336158
0.204465
0.00255105
0.194988
0.00172484
0.185976
0.000986219
0.177512
0.000400444
0.169637
-0.00018386
0.162178
-0.000823166
0.15514
-0.00153171
0.148602
-0.00230871
0.142381
-0.00300859
0.13641
-0.00360576
0.130753
-0.00404843
0.125463
-0.00437289
0.120389
-0.00456271
0.115688
-0.00467677
0.110894
-0.00416889
0.106345
-0.00293841
0.0963666
0.0635345
0.00515104
0.969748
0.00533667
0.940923
0.00526352
0.896288
0.0049415
0.853692
0.00472663
0.813017
0.00451941
0.774347
0.00434303
0.737589
0.00423816
0.702453
0.00426528
0.669031
0.00437053
0.637262
0.00441603
0.606781
0.00445725
0.577592
0.00466348
0.549748
0.00487404
0.523256
0.00503888
0.497912
0.00523062
0.473726
0.00543916
0.450724
0.00558753
0.428824
0.00568244
0.407914
0.00566821
0.387992
0.00543431
0.36924
0.00501338
0.351292
0.00454928
0.33427
0.00412172
0.318096
0.00377585
0.302566
0.00351979
0.287893
0.00319549
0.274014
0.00270005
0.260948
0.00205323
0.248633
0.00131988
0.23691
0.000567759
0.225714
-0.000132966
0.215145
-0.000830117
0.205163
-0.00155567
0.195714
-0.00229591
0.186716
-0.00308293
0.1783
-0.00393072
0.170484
-0.00473964
0.162987
-0.00542619
0.155827
-0.00592626
0.149102
-0.00626518
0.14272
-0.00654622
0.136691
-0.00675619
0.130963
-0.00684184
0.125549
-0.00681535
0.120363
-0.00663158
0.115504
-0.00634644
0.110609
-0.00545686
0.105455
-0.00361254
0.0945223
0.059922
0.00472471
0.965023
0.00470298
0.940944
0.00415099
0.89684
0.00332504
0.854517
0.00279244
0.81355
0.00218736
0.774952
0.0018246
0.737952
0.00167014
0.702608
0.00163787
0.669063
0.00183805
0.637062
0.00211963
0.606499
0.00236425
0.577348
0.00249536
0.549617
0.00257368
0.523178
0.00254533
0.49794
0.00240664
0.473865
0.00215285
0.450978
0.00179388
0.429183
0.00142992
0.408278
0.0011401
0.388282
0.000979173
0.369401
0.000753006
0.351518
0.000408634
0.334615
-6.47198e-05
0.31857
-0.00083134
0.303333
-0.0017615
0.288823
-0.00267963
0.274932
-0.0034996
0.261768
-0.00421726
0.249351
-0.00486319
0.237556
-0.00549938
0.22635
-0.00619327
0.215839
-0.00692493
0.205894
-0.00758724
0.196376
-0.00819382
0.187323
-0.00868828
0.178794
-0.00903054
0.170827
-0.00930629
0.163263
-0.00956791
0.156088
-0.00985023
0.149384
-0.0100959
0.142966
-0.0101807
0.136776
-0.0100953
0.130877
-0.00984981
0.125304
-0.00941649
0.11993
-0.00877814
0.114865
-0.00807182
0.109902
-0.00675009
0.104133
-0.00430227
0.0920744
0.0556197
0.00337534
0.961648
0.0022392
0.94208
0.00119328
0.897886
0.000562559
0.855148
-2.49274e-05
0.814137
-0.000369394
0.775296
-0.000674114
0.738257
-0.000952001
0.702886
-0.00116558
0.669276
-0.00138324
0.63728
-0.00162482
0.606741
-0.00175519
0.577478
-0.00177178
0.549633
-0.00180999
0.523216
-0.00190771
0.498038
-0.00201096
0.473968
-0.00211399
0.451081
-0.00226902
0.429338
-0.0025648
0.408574
-0.00302919
0.388746
-0.00365565
0.370027
-0.00438647
0.352249
-0.00510925
0.335337
-0.00567967
0.31914
-0.0061286
0.303782
-0.0064835
0.289178
-0.00690069
0.275349
-0.00746502
0.262333
-0.00814437
0.25003
-0.00889847
0.23831
-0.0096618
0.227113
-0.0103399
0.216517
-0.0109111
0.206465
-0.0114557
0.196921
-0.0119793
0.187846
-0.0125032
0.179318
-0.0130216
0.171345
-0.0134459
0.163687
-0.0136926
0.156335
-0.0136964
0.149388
-0.0135199
0.14279
-0.0132578
0.136514
-0.0128928
0.130513
-0.0123827
0.124794
-0.0117321
0.119279
-0.0108963
0.11403
-0.00990528
0.108911
-0.00817881
0.102407
-0.00500979
0.0889054
0.0506099
0.00319873
0.958449
0.00200656
0.943273
0.000663556
0.899229
-0.000395734
0.856207
-0.00145338
0.815195
-0.00221817
0.776061
-0.002727
0.738765
-0.00301188
0.70317
-0.0031535
0.669418
-0.00325147
0.637378
-0.00333915
0.606829
-0.00356808
0.577707
-0.0038385
0.549904
-0.0040744
0.523452
-0.00439439
0.498358
-0.00488798
0.474462
-0.00548798
0.451681
-0.00612129
0.429971
-0.00675617
0.409209
-0.00727686
0.389267
-0.00764362
0.370394
-0.00808602
0.352691
-0.00867502
0.335926
-0.00948992
0.319955
-0.0105105
0.304802
-0.0116057
0.290273
-0.0126458
0.276389
-0.0135326
0.26322
-0.0142977
0.250795
-0.0149335
0.238946
-0.0154933
0.227673
-0.0160636
0.217087
-0.0166379
0.20704
-0.0170991
0.197382
-0.017442
0.188189
-0.01764
0.179516
-0.0176621
0.171367
-0.0175793
0.163605
-0.0174517
0.156207
-0.0172998
0.149236
-0.0170423
0.142532
-0.0165796
0.136051
-0.0159347
0.129868
-0.0151344
0.123993
-0.0141961
0.118341
-0.0131151
0.112949
-0.011711
0.107507
-0.00953781
0.100234
-0.00569224
0.0850598
0.0449177
0.00209542
0.956354
0.000309731
0.945058
-0.00118488
0.900723
-0.00221288
0.857235
-0.00295359
0.815935
-0.00352426
0.776632
-0.0041399
0.739381
-0.00483243
0.703863
-0.00544257
0.670028
-0.00597779
0.637913
-0.00651095
0.607362
-0.00694999
0.578146
-0.00740469
0.550358
-0.0078537
0.523901
-0.00829912
0.498803
-0.00872856
0.474891
-0.00915454
0.452107
-0.00968064
0.430497
-0.0103895
0.409918
-0.0113444
0.390222
-0.0123688
0.371418
-0.0133806
0.353703
-0.0142421
0.336788
-0.0149317
0.320645
-0.0154537
0.305324
-0.0159538
0.290773
-0.0164559
0.276891
-0.0170155
0.263779
-0.0176731
0.251453
-0.0183956
0.239668
-0.0191118
0.228389
-0.0196804
0.217656
-0.0200875
0.207447
-0.0204394
0.197734
-0.020736
0.188486
-0.0209782
0.179758
-0.0211595
0.171548
-0.0212081
0.163653
-0.0210505
0.15605
-0.020637
0.148822
-0.0200481
0.141943
-0.0193691
0.135372
-0.0185749
0.129073
-0.0176266
0.123045
-0.0165474
0.117261
-0.01539
0.111791
-0.0136478
0.105765
-0.0110252
0.0976111
-0.00638636
0.080421
0.0385313
0.00217909
0.954175
0.000401879
0.946835
-0.00124804
0.902373
-0.00252239
0.85851
-0.00377573
0.817189
-0.00482443
0.77768
-0.00552455
0.740081
-0.00599109
0.70433
-0.00644264
0.67048
-0.00687865
0.638349
-0.00735332
0.607836
-0.00794221
0.578735
-0.00856364
0.55098
-0.0092656
0.524603
-0.0100399
0.499577
-0.0109676
0.475819
-0.0119601
0.453099
-0.0129423
0.431479
-0.0137907
0.410766
-0.0145131
0.390944
-0.0151889
0.372094
-0.0158934
0.354407
-0.0168303
0.337725
-0.0179619
0.321776
-0.0191885
0.306551
-0.0204116
0.291996
-0.0215673
0.278047
-0.0225464
0.264758
-0.0233356
0.252242
-0.0239235
0.240256
-0.0243961
0.228862
-0.0248503
0.21811
-0.0252569
0.207853
-0.0255122
0.197989
-0.0256181
0.188591
-0.0255665
0.179707
-0.0253221
0.171304
-0.0249289
0.16326
-0.0244581
0.155579
-0.0239368
0.148301
-0.0232867
0.141293
-0.0224381
0.134523
-0.0214285
0.128064
-0.0202883
0.121905
-0.0190099
0.115983
-0.0176155
0.110397
-0.0156053
0.103755
-0.0125159
0.0945217
-0.00706421
0.0749693
0.0314671
0.0019162
0.952259
-0.000150995
0.948903
-0.00192137
0.904143
-0.00317037
0.859759
-0.00408967
0.818108
-0.00498373
0.778574
-0.00600008
0.741098
-0.00701622
0.705346
-0.00791146
0.671375
-0.0087889
0.639227
-0.00958296
0.608631
-0.0103679
0.57952
-0.0111994
0.551811
-0.0120332
0.525437
-0.0128625
0.500407
-0.0136726
0.476629
-0.0145047
0.453931
-0.015474
0.432449
-0.0167146
0.412007
-0.0181565
0.392386
-0.0195905
0.373528
-0.0208213
0.355638
-0.0218642
0.338768
-0.0226954
0.322607
-0.0234037
0.307259
-0.0240436
0.292636
-0.0246235
0.278627
-0.025257
0.265392
-0.0259395
0.252924
-0.0266154
0.240932
-0.0272739
0.22952
-0.0277543
0.21859
-0.0280431
0.208142
-0.0282556
0.198202
-0.0283743
0.18871
-0.0283917
0.179724
-0.0283123
0.171225
-0.0280946
0.163042
-0.0276736
0.155158
-0.0270034
0.147631
-0.0261609
0.140451
-0.0252204
0.133583
-0.0241605
0.127004
-0.0229622
0.120707
-0.0217051
0.114726
-0.0200438
0.108735
-0.017799
0.10151
-0.0141604
0.0908832
-0.007785
0.0685939
0.0236821
0.0021175
0.950141
0.000309337
0.950711
-0.00133865
0.905791
-0.0028706
0.861291
-0.00428424
0.819522
-0.00538368
0.779674
-0.00615653
0.74187
-0.00692878
0.706118
-0.00769791
0.672144
-0.00844452
0.639973
-0.00930628
0.609492
-0.0102439
0.580457
-0.0112906
0.552858
-0.0124317
0.526578
-0.0136887
0.501664
-0.0150657
0.478006
-0.016496
0.455362
-0.0177359
0.433689
-0.0187782
0.413049
-0.0197634
0.393371
-0.0208292
0.374594
-0.021975
0.356784
-0.0233068
0.340099
-0.0247602
0.324061
-0.0261898
0.308689
-0.0276098
0.294056
-0.0289141
0.279931
-0.0299776
0.266455
-0.0307873
0.253734
-0.0314384
0.241583
-0.0319143
0.229996
-0.0323058
0.218982
-0.0326105
0.208447
-0.0327297
0.198321
-0.0326946
0.188675
-0.0325074
0.179537
-0.0321157
0.170833
-0.0315366
0.162463
-0.0308501
0.154471
-0.0301035
0.146884
-0.0292413
0.139588
-0.0282069
0.132549
-0.0270235
0.12582
-0.0257349
0.119418
-0.0244236
0.113415
-0.0225189
0.106831
-0.019916
0.0989071
-0.0154445
0.0864117
-0.00828125
0.0614306
0.0154009
0.00234342
0.947798
0.000627364
0.952427
-0.00107319
0.907492
-0.00227981
0.862497
-0.00346467
0.820707
-0.00458945
0.780799
-0.00571275
0.742994
-0.00684395
0.707249
-0.007995
0.673295
-0.00916071
0.641139
-0.0103044
0.610636
-0.0115218
0.581675
-0.0127547
0.554091
-0.0140163
0.52784
-0.0152485
0.502896
-0.0164485
0.479206
-0.017774
0.456687
-0.0193516
0.435266
-0.0211202
0.414818
-0.0229303
0.395181
-0.0246761
0.37634
-0.0261921
0.3583
-0.0273955
0.341303
-0.0284338
0.325099
-0.0293914
0.309646
-0.0302142
0.294879
-0.0309805
0.280697
-0.0318178
0.267293
-0.0326097
0.254526
-0.0333473
0.242321
-0.0340199
0.230669
-0.034509
0.219471
-0.0348016
0.20874
-0.0349927
0.198512
-0.0350513
0.188734
-0.0349672
0.179453
-0.0347766
0.170642
-0.0344722
0.162159
-0.0339838
0.153983
-0.0332437
0.146144
-0.0323067
0.138651
-0.0312602
0.131502
-0.0301155
0.124676
-0.028898
0.1182
-0.0273831
0.1119
-0.0252212
0.104669
-0.021976
0.095662
-0.016269
0.0807048
-0.00708477
0.0522463
0.00831612
0.00271091
0.945087
0.00141313
0.953725
-7.41858e-05
0.908979
-0.00131956
0.863743
-0.00249689
0.821884
-0.00341042
0.781712
-0.00438818
0.743971
-0.0053484
0.708209
-0.00632924
0.674276
-0.00748489
0.642295
-0.00875066
0.611902
-0.0100997
0.583024
-0.0115827
0.555574
-0.0131909
0.529448
-0.0149429
0.504648
-0.0167915
0.481055
-0.0185367
0.458432
-0.020069
0.436798
-0.0214395
0.416188
-0.0228343
0.396576
-0.0243734
0.377879
-0.0260004
0.359927
-0.0277715
0.343074
-0.0295755
0.326903
-0.0312655
0.311336
-0.0329421
0.296555
-0.0344596
0.282215
-0.0356405
0.268474
-0.0366187
0.255504
-0.0374675
0.24317
-0.0380676
0.231269
-0.0385295
0.219933
-0.0388663
0.209076
-0.0390029
0.198648
-0.0389951
0.188726
-0.038844
0.179302
-0.038466
0.170264
-0.037864
0.161557
-0.0371316
0.153251
-0.036344
0.145357
-0.0354684
0.137776
-0.0344322
0.130466
-0.0332496
0.123493
-0.0320886
0.117039
-0.0303507
0.110162
-0.0279624
0.10228
-0.0237945
0.0914941
-0.0162281
0.0731384
-0.00493805
0.0409563
0.00337807
0.0031893
0.941898
0.00229147
0.954623
0.00124619
0.910025
0.000162872
0.864826
-0.000935338
0.822982
-0.00182238
0.782599
-0.00290876
0.745058
-0.00416346
0.709464
-0.00555038
0.675663
-0.00696564
0.64371
-0.00848852
0.613425
-0.0100591
0.584595
-0.0117001
0.557215
-0.0133811
0.531129
-0.014995
0.506262
-0.0166608
0.48272
-0.0186078
0.460379
-0.0208029
0.438994
-0.0230984
0.418484
-0.0252876
0.398765
-0.0273539
0.379945
-0.0291793
0.361752
-0.0306875
0.344582
-0.032056
0.328272
-0.0333388
0.312619
-0.0344398
0.297656
-0.035548
0.283323
-0.0367155
0.269641
-0.0377664
0.256555
-0.0386524
0.244056
-0.03948
0.232096
-0.0401443
0.220597
-0.0406156
0.209548
-0.0409636
0.198997
-0.0411486
0.188911
-0.0411535
0.179307
-0.0410574
0.170168
-0.0408678
0.161367
-0.0405078
0.152891
-0.0398818
0.144731
-0.0390154
0.136909
-0.0380134
0.129464
-0.037039
0.122519
-0.0357091
0.11571
-0.0337171
0.10817
-0.0306182
0.0991814
-0.0252454
0.0861213
-0.0161025
0.0639955
-0.00317144
0.0280252
0.000206629
0.00420605
0.937691
0.0035597
0.955269
0.00278889
0.910795
0.0019318
0.865683
0.00126843
0.823646
0.000404397
0.783463
-0.000599261
0.746062
-0.001646
0.710511
-0.00290527
0.676922
-0.00426117
0.645066
-0.00576442
0.614928
-0.00743487
0.586265
-0.00926495
0.559045
-0.0112989
0.533163
-0.0135245
0.508488
-0.0157059
0.484902
-0.0177031
0.462377
-0.0195671
0.440858
-0.0214489
0.420365
-0.0234388
0.400755
-0.0255424
0.382048
-0.027765
0.363975
-0.0300449
0.346862
-0.0323092
0.330536
-0.034478
0.314788
-0.0365505
0.299729
-0.0383384
0.285111
-0.0397538
0.271057
-0.0410723
0.257873
-0.0422316
0.245215
-0.0431194
0.232984
-0.0438268
0.221304
-0.0443894
0.21011
-0.0447501
0.199357
-0.044974
0.189135
-0.0450542
0.179387
-0.0448794
0.169993
-0.0444533
0.160941
-0.0438659
0.152303
-0.0432296
0.144094
-0.0425448
0.136224
-0.0417645
0.128684
-0.0409218
0.121676
-0.0394475
0.114235
-0.0372752
0.105998
-0.0334492
0.0953554
-0.0265689
0.0792411
-0.0151569
0.0525835
-0.00229835
0.0151667
-0.00209172
0.00488132
0.93281
0.00468223
0.955468
0.00442636
0.911051
0.00382165
0.866288
0.00333015
0.824137
0.0024945
0.784299
0.00143689
0.747119
0.000161431
0.711786
-0.00120468
0.678288
-0.00275473
0.646616
-0.00445527
0.616628
-0.00627104
0.588081
-0.00817
0.560944
-0.0101113
0.535104
-0.0121122
0.510488
-0.0143604
0.48715
-0.0169291
0.464945
-0.0196794
0.443608
-0.0223901
0.423076
-0.0249891
0.403354
-0.0274606
0.38452
-0.0297582
0.366272
-0.031773
0.348877
-0.0336216
0.332384
-0.0353095
0.316476
-0.0368653
0.301285
-0.0385033
0.286749
-0.0401873
0.272741
-0.0416286
0.259315
-0.0428776
0.246464
-0.0440746
0.234181
-0.0451026
0.222332
-0.0459296
0.210937
-0.0466223
0.20005
-0.0471263
0.189639
-0.0474295
0.17969
-0.0476317
0.170196
-0.047742
0.161051
-0.0476986
0.15226
-0.0473732
0.143769
-0.0467762
0.135627
-0.0462525
0.12816
-0.0453
0.120723
-0.0437451
0.11268
-0.0411479
0.1034
-0.0362764
0.090484
-0.026871
0.0698357
-0.0116555
0.037368
-0.0015263
0.00503745
-0.00361803
0.00574705
0.927063
0.00583185
0.955383
0.00592041
0.910963
0.00566093
0.866547
0.0054743
0.824324
0.00489053
0.784883
0.00421384
0.747796
0.00318195
0.712818
0.00200395
0.679466
0.000668083
0.647952
-0.000866281
0.618163
-0.00267855
0.589893
-0.00473138
0.562997
-0.0070653
0.537438
-0.00954772
0.512971
-0.0119225
0.489525
-0.0141955
0.467218
-0.0165468
0.445959
-0.0190606
0.42559
-0.0216884
0.405982
-0.0244116
0.387243
-0.0272355
0.369096
-0.0301208
0.351762
-0.0330153
0.335279
-0.0358645
0.319325
-0.0384927
0.303913
-0.0407249
0.288981
-0.0426289
0.274645
-0.0444239
0.26111
-0.0460715
0.248112
-0.0474185
0.235528
-0.0485792
0.223493
-0.0495741
0.211932
-0.0503696
0.200845
-0.051035
0.190304
-0.051542
0.180197
-0.0517678
0.170422
-0.0517237
0.161007
-0.0514809
0.152017
-0.0512093
0.143497
-0.0510508
0.135469
-0.050704
0.127813
-0.04968
0.119699
-0.0479678
0.110968
-0.0444973
0.0999298
-0.0374557
0.0834424
-0.0247364
0.0571163
-0.00730351
0.0199351
-0.000862672
-0.00140339
-0.0044807
0.00565135
0.921412
0.00663737
0.954397
0.0073943
0.910206
0.0075162
0.866425
0.00739698
0.824443
0.00683856
0.785441
0.0061619
0.748472
0.00524077
0.713739
0.00409407
0.680613
0.00270947
0.649336
0.0010937
0.619779
-0.000720415
0.591707
-0.00271887
0.564995
-0.00481197
0.539531
-0.00719845
0.515357
-0.00998002
0.492306
-0.0130065
0.470245
-0.0161307
0.449083
-0.0192503
0.42871
-0.0223375
0.409069
-0.0253455
0.390251
-0.0282589
0.37201
-0.0309013
0.354404
-0.033338
0.337716
-0.0355864
0.321573
-0.0378096
0.306136
-0.0401597
0.291332
-0.0425103
0.276995
-0.0445537
0.263153
-0.0463728
0.249931
-0.0481293
0.237284
-0.0496972
0.225061
-0.0510809
0.213316
-0.0523202
0.202085
-0.0533175
0.191301
-0.0540895
0.180969
-0.0547524
0.171084
-0.055328
0.161583
-0.0557854
0.152475
-0.0559783
0.14369
-0.0559714
0.135462
-0.0554675
0.127309
-0.0544716
0.118704
-0.0521976
0.108694
-0.0469467
0.0946788
-0.036234
0.0727298
-0.0183553
0.0392376
-0.00391502
0.00549486
-8.58011e-05
-0.0052326
-0.0045665
0.00642148
0.91499
0.00733229
0.953486
0.00803588
0.909502
0.00855351
0.865908
0.00896818
0.824028
0.00898079
0.785428
0.00869749
0.748756
0.00813889
0.714298
0.00737967
0.681372
0.00637049
0.650345
0.0050722
0.621077
0.00340924
0.59337
0.00135515
0.567049
-0.00103737
0.541924
-0.00353105
0.517851
-0.00604189
0.494817
-0.00869929
0.472902
-0.0115884
0.451972
-0.0147007
0.431822
-0.0179754
0.412344
-0.0213526
0.393628
-0.0248477
0.375505
-0.0284865
0.358043
-0.0321537
0.341383
-0.0357875
0.325207
-0.0390913
0.30944
-0.0419433
0.294184
-0.0444863
0.279538
-0.0469595
0.265626
-0.0492665
0.252238
-0.0512346
0.239253
-0.0529937
0.22682
-0.0545596
0.214882
-0.0559403
0.203465
-0.0572432
0.192604
-0.0583936
0.182119
-0.0592388
0.17193
-0.0597625
0.162107
-0.0600359
0.152748
-0.0603258
0.14398
-0.060524
0.13566
-0.0601102
0.126896
-0.0586084
0.117202
-0.0548095
0.104895
-0.0465024
0.0863717
-0.0311963
0.0574237
-0.0109096
0.0189508
-0.00228717
-0.00312756
-2.81693e-05
-0.0074916
-0.00459466
0.00626473
0.908726
0.00793748
0.951814
0.00924405
0.908196
0.00967258
0.865479
0.0101243
0.823576
0.0102702
0.785283
0.0101822
0.748844
0.00980233
0.714678
0.00916854
0.682006
0.0082079
0.651306
0.00697651
0.622308
0.00546313
0.594883
0.00370433
0.568808
0.00160366
0.544024
-0.00100078
0.520455
-0.0040288
0.497845
-0.00728603
0.476159
-0.0106894
0.455376
-0.014225
0.435357
-0.0178399
0.415959
-0.0214744
0.397263
-0.0250531
0.379084
-0.0284004
0.361391
-0.0315699
0.344552
-0.0346085
0.328246
-0.0376914
0.312523
-0.0408855
0.297378
-0.0440224
0.282675
-0.0467866
0.26839
-0.0493128
0.254764
-0.0517612
0.241701
-0.0540153
0.229074
-0.0561231
0.216989
-0.0580821
0.205424
-0.0597101
0.194232
-0.0610707
0.18348
-0.0623152
0.173174
-0.0634933
0.163285
-0.0645921
0.153847
-0.0653908
0.144779
-0.0654248
0.135694
-0.0645982
0.126069
-0.062063
0.114667
-0.0556893
0.0985215
-0.0426368
0.0733191
-0.0210476
0.0358345
-0.00495847
0.00286166
-0.000568942
-0.00751708
0.000312577
-0.00837312
-0.00428209
0.00672977
0.901996
0.00757793
0.950965
0.00901332
0.90676
0.00985433
0.864638
0.0107543
0.822676
0.0113559
0.784681
0.0118441
0.748356
0.012021
0.714501
0.0119146
0.682112
0.0115296
0.651691
0.0107489
0.623089
0.00951445
0.596118
0.00781642
0.570506
0.00580614
0.546035
0.00354079
0.522721
0.000935675
0.50045
-0.00200076
0.479096
-0.0052646
0.45864
-0.00885208
0.438945
-0.0127345
0.419841
-0.0167933
0.401321
-0.0210979
0.383388
-0.025555
0.365848
-0.0300797
0.349077
-0.0345105
0.332677
-0.0386061
0.316618
-0.0422549
0.301026
-0.0456078
0.286028
-0.0489208
0.271703
-0.0519827
0.257826
-0.0546604
0.244379
-0.057106
0.23152
-0.0593132
0.219197
-0.0613358
0.207447
-0.0633782
0.196275
-0.0653268
0.185428
-0.06697
0.174817
-0.0682505
0.164565
-0.0691477
0.154744
-0.0697209
0.145352
-0.0697605
0.135734
-0.0684704
0.124779
-0.0639414
0.110138
-0.0531571
0.0877373
-0.0332337
0.0533957
-0.0109759
0.0135768
-0.00220708
-0.00590717
0.00012659
-0.00985076
0.000381542
-0.00862807
-0.00390054
0.00551613
0.89648
0.00691846
0.949563
0.00866551
0.905013
0.00947088
0.863833
0.0105432
0.821604
0.0112473
0.783977
0.011954
0.747649
0.012392
0.714063
0.0125248
0.68198
0.0123576
0.651858
0.0118204
0.623626
0.0109668
0.596972
0.00968268
0.57179
0.00784954
0.547868
0.00548975
0.52508
0.00266651
0.503273
-0.000546126
0.482309
-0.00409276
0.462186
-0.00794152
0.442794
-0.0120158
0.423915
-0.0162327
0.405538
-0.0204454
0.387601
-0.024606
0.370008
-0.0286505
0.353121
-0.0326923
0.336719
-0.0367542
0.32068
-0.0408928
0.305165
-0.0448901
0.290025
-0.0484441
0.275257
-0.051772
0.261154
-0.0549708
0.247577
-0.0579181
0.234467
-0.0607572
0.222036
-0.0634867
0.210176
-0.0658736
0.198662
-0.0679949
0.18755
-0.0699835
0.176806
-0.0719051
0.166487
-0.0736284
0.156467
-0.0746324
0.146356
-0.074125
0.135226
-0.0709339
0.121588
-0.0624783
0.101682
-0.0457411
0.0710001
-0.0198592
0.0275137
-0.00470567
-0.0015767
-0.000646374
-0.00996646
0.000519177
-0.0110163
0.000408414
-0.00851731
-0.00349213
0.00574887
0.890731
0.00551671
0.949795
0.00669164
0.903838
0.00790788
0.862617
0.00947774
0.820034
0.0106921
0.782763
0.0120158
0.746325
0.0130589
0.71302
0.0138971
0.681142
0.0144261
0.651329
0.0145504
0.623502
0.0141731
0.597349
0.0133322
0.572631
0.0120557
0.549144
0.0102838
0.526852
0.00797342
0.505584
0.00513089
0.485151
0.00179027
0.465527
-0.00203152
0.446615
-0.00632483
0.428209
-0.0110395
0.410253
-0.0161687
0.39273
-0.021487
0.375327
-0.0268486
0.358483
-0.0321464
0.342016
-0.0372213
0.325755
-0.0418266
0.30977
-0.0461865
0.294385
-0.0504341
0.279505
-0.0543038
0.265024
-0.057746
0.25102
-0.0609476
0.237669
-0.0638208
0.224909
-0.0664572
0.212813
-0.0691693
0.201374
-0.0719012
0.190282
-0.0744599
0.179365
-0.0767098
0.168737
-0.0783519
0.158109
-0.0789965
0.147
-0.077621
0.133851
-0.0716748
0.115641
-0.0577033
0.0877105
-0.0320958
0.0453926
-0.0100886
0.0055065
-0.00299202
-0.00867325
-0.00096258
-0.0119959
-0.000173748
-0.0118051
0.000125216
-0.00881627
-0.00336691
0.0034573
0.887273
0.00371874
0.949534
0.00493703
0.90262
0.00589232
0.861661
0.00733828
0.818588
0.00857664
0.781524
0.0100058
0.744896
0.0111958
0.71183
0.0123164
0.680021
0.0131536
0.650492
0.0137229
0.622933
0.0138393
0.597232
0.0134395
0.573031
0.012421
0.550163
0.0107719
0.528502
0.00849621
0.507859
0.00565285
0.487994
0.00228207
0.468898
-0.00154535
0.450443
-0.00582305
0.432487
-0.0103886
0.414819
-0.015109
0.397451
-0.0200735
0.380291
-0.025133
0.363543
-0.0302109
0.347094
-0.0353288
0.330873
-0.0405669
0.315008
-0.0455139
0.299332
-0.0500289
0.28402
-0.0542884
0.269283
-0.0582883
0.25502
-0.0618957
0.241276
-0.0653521
0.228365
-0.068683
0.216144
-0.0717362
0.204427
-0.0746854
0.193231
-0.077676
0.182355
-0.0804925
0.171553
-0.0826432
0.16026
-0.0830121
0.147369
-0.0794089
0.130248
-0.0685141
0.104747
-0.0456824
0.0648788
-0.0183538
0.018064
-0.00677395
-0.00607339
-0.00328004
-0.0121672
-0.00199729
-0.0132787
-0.00118907
-0.0126134
-0.000396489
-0.00960885
-0.0037634
0.0014549
0.885819
0.000825543
0.950163
0.000947981
0.902498
0.00246807
0.860141
0.004257
0.816799
0.00607892
0.779702
0.00816089
0.742814
0.0101215
0.709869
0.0119569
0.678186
0.0135162
0.648933
0.0148281
0.621621
0.0157511
0.59631
0.0161779
0.572604
0.0160255
0.550315
0.0152389
0.529288
0.0137241
0.509374
0.0114461
0.490272
0.00846481
0.471879
0.00471648
0.454191
0.000250463
0.436953
-0.00491078
0.41998
-0.0106917
0.403232
-0.0167684
0.386368
-0.022901
0.369675
-0.0292353
0.353429
-0.0353602
0.336998
-0.041082
0.32073
-0.0466214
0.304872
-0.051927
0.289326
-0.0567225
0.274079
-0.0610345
0.259332
-0.0649895
0.245231
-0.0684519
0.231828
-0.0715975
0.219289
-0.0748257
0.207655
-0.0781472
0.196552
-0.0814548
0.185663
-0.0845913
0.17469
-0.0866819
0.162351
-0.0853862
0.146074
-0.0779038
0.122766
-0.0596801
0.086523
-0.0294602
0.0346589
-0.0105639
-0.000832286
-0.00499957
-0.0116377
-0.00299115
-0.0141756
-0.00195472
-0.0143151
-0.00136814
-0.0131999
-0.000687027
-0.01029
-0.00445043
-0.0024024
0.888221
-0.0027753
0.950536
-0.00222272
0.901945
-0.00126994
0.859189
6.16055e-05
0.815468
0.0020686
0.777695
0.00392877
0.740954
0.00597993
0.707818
0.0081346
0.676031
0.010098
0.646969
0.0117974
0.619921
0.0131335
0.594973
0.0139796
0.571758
0.0142589
0.550036
0.0138518
0.529695
0.0127207
0.510505
0.0108022
0.492191
0.00814229
0.474539
0.00487855
0.457455
0.000996976
0.440834
-0.00342294
0.4244
-0.00837507
0.408184
-0.014015
0.392008
-0.0200712
0.375731
-0.0261564
0.359514
-0.0325351
0.343376
-0.03893
0.327125
-0.0450483
0.31099
-0.0507085
0.294986
-0.0560888
0.279459
-0.0610159
0.264259
-0.0654001
0.249615
-0.0694518
0.23588
-0.0731325
0.22297
-0.0763723
0.210895
-0.0796496
0.19983
-0.0832695
0.189283
-0.0864389
0.177859
-0.0878774
0.163789
-0.084984
0.14318
-0.0725673
0.110349
-0.0445212
0.0584769
-0.0171826
0.00732034
-0.00679355
-0.0112214
-0.00291129
-0.01552
-0.00117937
-0.0159075
-0.00055821
-0.0149362
-0.000538598
-0.0132196
-0.000462282
-0.0103663
-0.00491271
-0.0038157
0.892037
-0.0060484
0.952769
-0.00735414
0.903251
-0.0065513
0.858386
-0.00476658
0.813683
-0.00243903
0.775368
0.000223103
0.738292
0.00314945
0.704891
0.00582939
0.673351
0.00864092
0.644158
0.0113
0.617262
0.0136583
0.592615
0.0156251
0.569791
0.0170159
0.548645
0.0176865
0.529025
0.0175227
0.510669
0.0164259
0.493288
0.0142722
0.476693
0.0109455
0.460782
0.00668712
0.445092
0.00152104
0.429566
-0.00440863
0.414114
-0.0106213
0.39822
-0.0174123
0.382522
-0.0246925
0.366794
-0.0318696
0.350553
-0.0388975
0.334153
-0.0457791
0.317872
-0.0524028
0.30161
-0.0583513
0.285407
-0.0637466
0.269654
-0.0685605
0.254429
-0.0725603
0.239879
-0.07591
0.22632
-0.079191
0.214176
-0.0828166
0.203455
-0.0863346
0.192801
-0.0890064
0.180531
-0.0886318
0.163415
-0.0815301
0.136078
-0.0619994
0.0908181
-0.0282492
0.0247268
-0.00965172
-0.0112772
-0.00150616
-0.019367
0.00267846
-0.0197046
0.00416988
-0.0173989
0.00371938
-0.0144857
0.00210978
-0.01161
0.000559199
-0.0088157
-0.00435351
-0.0101561
0.902193
-0.01111
0.953723
-0.0119826
0.904123
-0.0113756
0.857779
-0.010154
0.812462
-0.0082297
0.773444
-0.00609508
0.736157
-0.00347457
0.702271
-0.000581898
0.670458
0.00240314
0.641173
0.00529513
0.61437
0.0079554
0.589955
0.0103372
0.567409
0.0122369
0.546745
0.0135008
0.527761
0.0139949
0.510175
0.0136842
0.493598
0.0126417
0.477735
0.010864
0.462559
0.00791829
0.448038
0.00403098
0.433453
-0.000920817
0.419065
-0.00713083
0.40443
-0.0136624
0.389054
-0.0206812
0.373813
-0.0282258
0.358098
-0.036023
0.34195
-0.0435127
0.325361
-0.0506483
0.308745
-0.0573472
0.292106
-0.0634716
0.275778
-0.0689298
0.259887
-0.0738189
0.244769
-0.0779753
0.230476
-0.0809815
0.217182
-0.0832713
0.205745
-0.0853775
0.194907
-0.0869492
0.182103
-0.0848385
0.161304
-0.0724288
0.123669
-0.0462284
0.0646177
-0.0152039
-0.00629774
-4.374e-05
-0.0264374
0.00848204
-0.0278927
0.0124648
-0.0236873
0.0127077
-0.0176418
0.010405
-0.012183
0.00664529
-0.00785028
0.0026004
-0.00477081
-0.00175311
-0.0119826
0.914175
-0.0140397
0.95578
-0.0181525
0.908236
-0.0186252
0.858251
-0.0164472
0.810284
-0.0137734
0.77077
-0.0106893
0.733073
-0.00725028
0.698832
-0.00388565
0.667094
-0.000158322
0.637445
0.00362784
0.610584
0.00734219
0.586241
0.0108771
0.563874
0.0139721
0.54365
0.0164358
0.525297
0.0179934
0.508618
0.0183953
0.493196
0.0173613
0.478769
0.0153811
0.464539
0.012316
0.451103
0.007876
0.437893
0.00271466
0.424227
-0.0034082
0.410553
-0.0107624
0.396408
-0.0185764
0.381627
-0.0268266
0.366348
-0.0353051
0.350429
-0.0438552
0.333911
-0.0521029
0.316993
-0.0595946
0.299598
-0.066513
0.282697
-0.0723575
0.265732
-0.0770583
0.249469
-0.0807439
0.234162
-0.083912
0.22035
-0.0860887
0.207922
-0.0865926
0.195411
-0.0838767
0.179387
-0.0760209
0.153448
-0.0620086