/*--------------------------------*- C++ -*----------------------------------*\
| =========                 |                                                 |
| \\      /  F ield         | OpenFOAM: The Open Source CFD Toolbox           |
|  \\    /   O peration     | Version:  v1912                                 |
|   \\  /    A nd           | Website:  www.openfoam.com                      |
|    \\/     M anipulation  |                                                 |
\*---------------------------------------------------------------------------*/
FoamFile
{
    version     2.0;
    format      ascii;
    class       volVectorField;
    location    "0.38";
    object      U;
}
// * * * * * * * * * * * * * * * * * * * * * * * * * * * * * * * * * * * * * //

dimensions      [0 1 -1 0 0 0 0];


internalField   nonuniform List<vector> 
6600
(
(39.8348 -0.0526029 0)
(40.0737 -0.0915487 3.3096e-20)
(40.1164 -0.0359816 2.30589e-18)
(40.1361 0.0305213 0)
(40.1511 0.111125 2.88715e-18)
(40.1804 0.228978 9.9652e-20)
(40.2259 0.375755 -1.10627e-19)
(40.2685 0.524258 -1.23034e-19)
(40.3149 0.670039 2.47142e-18)
(40.3629 0.823074 -1.7544e-19)
(40.405 0.988126 0)
(40.4518 1.1562 -3.06483e-18)
(40.4996 1.31814 0)
(40.5348 1.49079 -3.56848e-18)
(40.5607 1.67797 -4.61319e-18)
(40.6027 1.86439 -2.44529e-18)
(40.6254 2.07229 0)
(40.6421 2.3101 0)
(40.639 2.55498 3.95752e-18)
(40.6069 2.82584 -3.88058e-18)
(40.5546 3.11455 -5.51238e-19)
(40.5121 3.41163 -1.92752e-18)
(40.4747 3.73055 -3.63043e-18)
(40.4144 4.08698 8.24216e-19)
(40.3374 4.47718 2.86289e-18)
(40.2808 4.92074 0)
(40.2206 5.4183 7.18122e-18)
(40.1173 5.94881 0)
(40.0009 6.52044 -3.72691e-18)
(39.8925 7.1312 -2.48448e-18)
(39.7741 7.77961 -2.53769e-19)
(39.6448 8.49033 -3.10785e-18)
(39.5097 9.27298 -1.21693e-18)
(39.3015 10.1174 2.60343e-18)
(39.0569 11.0089 3.04207e-19)
(38.8496 11.9983 3.13503e-18)
(38.7554 13.0584 5.62713e-18)
(38.6522 14.1582 5.79576e-18)
(38.5029 15.3401 -4.23159e-18)
(38.4073 16.6291 4.56327e-18)
(38.2835 18.0483 2.42182e-18)
(38.1541 19.5948 0)
(38.0607 21.2267 -8.46395e-19)
(38.0045 22.9827 1.97058e-18)
(37.976 24.8047 0)
(38.0383 26.8166 -2.21622e-19)
(38.0716 28.7771 -9.30462e-19)
(38.5096 31.1974 0)
(36.9574 32.4377 0)
(27.2037 25.943 -1.53237e-18)
(39.7136 -0.0627414 1.95482e-18)
(40.1214 -0.0918811 -2.12087e-18)
(40.1477 -0.00783982 0)
(40.1719 0.0885176 -4.04489e-20)
(40.1994 0.207138 2.91094e-18)
(40.2345 0.331354 9.96901e-20)
(40.2881 0.463466 -9.98362e-25)
(40.3462 0.605652 -1.22994e-19)
(40.4152 0.765872 0)
(40.486 0.934002 -4.72736e-18)
(40.542 1.10171 -1.69904e-19)
(40.5864 1.2798 3.03506e-18)
(40.6367 1.47453 3.18448e-18)
(40.6843 1.66006 1.94589e-18)
(40.7075 1.86269 -2.96547e-21)
(40.7278 2.06752 3.00983e-19)
(40.7505 2.27851 -2.70885e-18)
(40.7623 2.48893 0)
(40.7736 2.72931 0)
(40.8025 2.9744 3.97274e-18)
(40.8034 3.26127 5.60775e-19)
(40.7886 3.58354 -3.1069e-18)
(40.7786 3.94617 -2.80702e-18)
(40.7625 4.34267 -3.17176e-18)
(40.7038 4.75308 -2.66293e-18)
(40.6203 5.17799 -1.0229e-18)
(40.5217 5.62355 -1.20986e-18)
(40.4307 6.10677 -1.30725e-18)
(40.3565 6.6661 3.79891e-18)
(40.268 7.29021 2.21313e-19)
(40.1572 7.97157 -4.79612e-18)
(40.0529 8.7032 4.32876e-18)
(39.9579 9.48549 3.35368e-18)
(39.9248 10.3418 -3.95044e-18)
(39.8805 11.27 3.23599e-19)
(39.8291 12.2586 -3.20657e-18)
(39.7386 13.3309 2.96463e-18)
(39.6259 14.4922 -2.05349e-18)
(39.5733 15.7403 -1.70376e-18)
(39.5406 17.079 -1.84046e-18)
(39.5462 18.4669 0)
(39.5917 19.9292 0)
(39.6738 21.4862 -4.44826e-19)
(39.8266 23.1724 4.28891e-19)
(40.0417 24.9268 -1.91011e-19)
(40.3091 26.8678 2.28859e-19)
(40.5285 28.7396 2.68048e-18)
(41.1195 31.0033 0)
(39.6083 31.7944 -4.28753e-18)
(28.5003 24.8888 1.72335e-18)
(39.5936 -0.050732 -3.08313e-20)
(40.2035 -0.125075 2.16491e-18)
(40.2225 -0.00150725 2.32503e-18)
(40.251 0.0980489 -1.68726e-22)
(40.2896 0.228052 -1.6166e-19)
(40.3445 0.37548 9.94583e-20)
(40.4018 0.531286 0)
(40.4554 0.681487 0)
(40.5126 0.824757 0)
(40.5773 0.986549 2.59696e-18)
(40.6404 1.15403 -1.69536e-19)
(40.6907 1.30683 -3.05535e-18)
(40.7487 1.48279 -1.51417e-18)
(40.8098 1.66441 3.58055e-18)
(40.8618 1.85942 2.13026e-18)
(40.9142 2.06735 -3.03187e-19)
(40.9626 2.3084 5.76115e-18)
(40.995 2.56315 -3.02842e-18)
(40.997 2.8348 -3.41058e-18)
(40.9894 3.13014 0)
(40.9932 3.43728 -2.16621e-18)
(40.9726 3.75936 2.51145e-18)
(40.9652 4.09908 2.84072e-18)
(40.9528 4.48814 3.21182e-18)
(40.9337 4.91919 2.73293e-18)
(40.9402 5.42275 -4.5817e-19)
(40.9479 5.97583 -5.62212e-19)
(40.9116 6.54987 -1.82519e-18)
(40.8804 7.16209 -7.08137e-19)
(40.8559 7.80546 2.48895e-18)
(40.8251 8.48894 8.81073e-19)
(40.7986 9.23575 0)
(40.7703 10.0497 -4.2634e-18)
(40.6572 10.9044 1.14383e-18)
(40.5491 11.8086 2.49806e-18)
(40.5061 12.8033 3.79038e-18)
(40.6001 13.8553 -1.70482e-18)
(40.6812 14.9474 -1.47362e-18)
(40.732 16.0961 4.08683e-19)
(40.8576 17.3418 0)
(40.9763 18.702 -8.16624e-19)
(41.1269 20.156 0)
(41.3418 21.6656 0)
(41.6227 23.2682 3.67284e-19)
(41.9923 24.9117 3.61286e-19)
(42.4753 26.7211 -1.7427e-18)
(42.9891 28.5373 -1.82355e-18)
(43.682 30.4993 0)
(42.0572 30.8505 -2.778e-18)
(29.4379 23.4621 3.05721e-18)
(39.507 -0.0368817 -1.93753e-18)
(40.2979 -0.0700776 1.63635e-20)
(40.3081 0.0907777 -2.39168e-18)
(40.3478 0.19384 -2.50734e-18)
(40.3845 0.320291 -2.82001e-18)
(40.4356 0.458471 -1.51794e-18)
(40.5073 0.601514 -1.09611e-19)
(40.5743 0.753305 0)
(40.6461 0.909527 2.15363e-18)
(40.7207 1.06088 2.5544e-18)
(40.7782 1.23208 -1.6873e-19)
(40.8463 1.41717 -1.89788e-19)
(40.905 1.60164 -1.49241e-18)
(40.9626 1.79159 -2.67726e-19)
(41.0037 1.99703 2.29895e-19)
(41.0414 2.21579 -3.00806e-19)
(41.0869 2.43561 2.81856e-19)
(41.1331 2.68618 3.43562e-18)
(41.1899 2.94637 4.69856e-18)
(41.2269 3.22742 0)
(41.2792 3.54271 6.54548e-20)
(41.3061 3.90844 0)
(41.3351 4.30809 0)
(41.3588 4.73134 -7.73634e-19)
(41.3455 5.17245 2.54729e-18)
(41.31 5.62702 2.47479e-18)
(41.2582 6.09634 -5.41542e-19)
(41.2702 6.62715 2.49354e-18)
(41.2824 7.22743 0)
(41.2843 7.88142 0)
(41.2727 8.58885 1.54857e-18)
(41.2773 9.34885 0)
(41.3038 10.1421 1.10705e-18)
(41.419 11.0055 2.06281e-18)
(41.513 11.9345 -3.48838e-18)
(41.5919 12.9165 -3.55681e-18)
(41.6546 13.9762 3.2307e-18)
(41.7489 15.1156 -1.1751e-18)
(41.9119 16.3238 3.51408e-19)
(42.1294 17.5817 4.14617e-19)
(42.4127 18.8641 1.02671e-18)
(42.7362 20.2026 0)
(43.1237 21.6233 0)
(43.6127 23.1309 -4.64114e-19)
(44.1835 24.6671 -1.67735e-18)
(44.808 26.3463 -7.55041e-19)
(45.4558 28.0592 -3.70839e-18)
(46.1212 29.7535 4.09671e-18)
(44.194 29.6403 6.28567e-18)
(29.9502 21.7342 0)
(39.4241 -0.0150944 -7.3371e-21)
(40.4079 -0.0798464 2.0578e-18)
(40.4226 0.109647 2.2493e-18)
(40.4788 0.210973 2.59967e-18)
(40.5305 0.354572 0)
(40.5947 0.502387 2.61632e-20)
(40.6492 0.652172 0)
(40.7077 0.798417 -1.20655e-19)
(40.777 0.952662 -4.1592e-18)
(40.8565 1.10659 -2.56558e-18)
(40.9247 1.25185 1.67012e-19)
(40.9802 1.4128 1.87778e-19)
(41.0573 1.58516 -2.08978e-19)
(41.1379 1.77682 -1.89503e-18)
(41.2188 1.97983 -4.46707e-18)
(41.2879 2.21191 2.94091e-19)
(41.3543 2.45814 -5.29174e-18)
(41.3998 2.73535 3.73649e-19)
(41.4269 3.03756 -1.6913e-18)
(41.4518 3.35318 -9.38355e-19)
(41.491 3.67831 2.66885e-18)
(41.5281 4.01233 0)
(41.5708 4.39352 0)
(41.6232 4.80565 -1.43908e-18)
(41.6699 5.2705 -1.70627e-18)
(41.7477 5.80943 2.2456e-18)
(41.8385 6.40167 -5.14948e-19)
(41.882 7.00838 0)
(41.9393 7.6507 6.19751e-19)
(42.007 8.32026 -6.90405e-19)
(42.079 9.02213 -1.57388e-18)
(42.1676 9.78307 -2.25857e-18)
(42.2336 10.6003 8.70043e-19)
(42.2411 11.4522 -8.50011e-19)
(42.2885 12.343 9.45864e-19)
(42.4309 13.3107 0)
(42.7135 14.323 -1.00238e-18)
(42.9815 15.3657 -1.16172e-18)
(43.24 16.447 6.86952e-19)
(43.5786 17.6121 5.54586e-19)
(43.941 18.8636 -1.93498e-19)
(44.3646 20.167 0)
(44.8634 21.4829 0)
(45.4445 22.8574 -1.59918e-18)
(46.1345 24.2353 3.49857e-18)
(46.9412 25.7415 9.52594e-19)
(47.7876 27.3502 2.39509e-18)
(48.3642 28.6873 -5.16546e-18)
(45.9254 28.1304 6.19205e-19)
(29.9796 19.7131 -8.90519e-18)
(39.3674 -0.00624041 1.8594e-18)
(40.5382 -0.0210092 -4.4931e-20)
(40.5603 0.19707 -2.29269e-18)
(40.6394 0.284651 1.23781e-18)
(40.6678 0.431372 0)
(40.7329 0.562371 1.60172e-18)
(40.8082 0.69828 -5.34618e-20)
(40.8777 0.845187 -1.88295e-18)
(40.949 0.997469 2.13884e-18)
(41.0277 1.15846 0)
(41.1161 1.33332 1.65098e-19)
(41.1879 1.51764 1.26967e-18)
(41.2596 1.70149 -1.82963e-18)
(41.3356 1.8962 2.29783e-19)
(41.4092 2.10534 2.34958e-18)
(41.4755 2.33506 -2.88078e-19)
(41.5588 2.575 1.68441e-18)
(41.6518 2.83158 -3.61551e-19)
(41.7301 3.11408 4.07105e-19)
(41.7996 3.43018 1.31907e-18)
(41.8883 3.78297 1.72381e-18)
(41.9776 4.17931 -5.29855e-22)
(42.0565 4.60672 6.3274e-19)
(42.1304 5.05793 2.46047e-18)
(42.1884 5.51572 0)
(42.2074 5.97813 -1.80488e-18)
(42.2159 6.46585 4.73085e-19)
(42.3126 7.01912 -1.09214e-20)
(42.4176 7.63178 -6.98004e-20)
(42.5197 8.29582 6.23772e-19)
(42.6167 9.01084 -1.20209e-18)
(42.7358 9.77876 1.50238e-18)
(42.9253 10.5752 0)
(43.1797 11.421 0)
(43.4184 12.3205 0)
(43.6395 13.258 0)
(43.8647 14.2608 -5.69729e-19)
(44.1633 15.3258 9.3867e-19)
(44.5342 16.4387 0)
(44.9754 17.5662 2.52234e-20)
(45.4902 18.6926 -2.87952e-19)
(46.0439 19.8544 -1.94569e-18)
(46.6775 21.0711 1.07683e-18)
(47.4127 22.3268 0)
(48.2258 23.5714 1.58652e-18)
(49.0807 24.9193 -5.94691e-18)
(49.9511 26.3751 4.26243e-18)
(50.3286 27.4205 3.51846e-18)
(47.1965 26.3744 1.34219e-17)
(29.41 17.4093 -1.01289e-17)
(39.3178 0.00501563 -1.85698e-18)
(40.6773 -0.0372948 -4.00894e-18)
(40.6984 0.193705 3.47786e-20)
(40.7868 0.269855 -1.24193e-18)
(40.835 0.445375 1.30941e-18)
(40.9007 0.574873 -4.73049e-20)
(40.9568 0.722607 1.71643e-18)
(41.0232 0.864801 1.8905e-18)
(41.1102 1.00728 2.1218e-18)
(41.1995 1.15282 -7.24454e-20)
(41.2859 1.30804 -1.27452e-18)
(41.3808 1.47707 -4.08073e-20)
(41.4738 1.66641 1.63202e-18)
(41.5768 1.86494 0)
(41.6831 2.07542 0)
(41.7796 2.31519 1.40364e-19)
(41.8716 2.58092 2.34576e-18)
(41.9593 2.87213 0)
(42.037 3.18362 1.95158e-19)
(42.0923 3.51602 -2.00467e-18)
(42.1701 3.84726 -1.75335e-18)
(42.2651 4.19947 7.67502e-19)
(42.3826 4.59201 0)
(42.4889 5.02556 -1.37415e-18)
(42.6349 5.53431 -3.6082e-19)
(42.8024 6.1002 4.02515e-19)
(42.9751 6.70546 0)
(43.1046 7.3268 0)
(43.2583 7.9817 -6.42964e-19)
(43.4257 8.65923 -4.21549e-19)
(43.6082 9.35699 1.74944e-18)
(43.812 10.0979 -5.91478e-19)
(43.9634 10.8872 -5.1722e-19)
(44.101 11.7106 1.05004e-18)
(44.3049 12.5557 -1.06858e-18)
(44.6226 13.4597 5.79741e-21)
(45.0699 14.3893 3.66052e-19)
(45.4966 15.3326 -1.52206e-19)
(45.9297 16.2927 -6.26124e-19)
(46.4411 17.3195 4.00484e-20)
(46.9955 18.3984 -3.28113e-19)
(47.6217 19.4879 9.98895e-19)
(48.3197 20.5563 1.99773e-18)
(49.0964 21.6527 -2.21926e-18)
(49.9763 22.7209 1.54837e-18)
(50.9556 23.8875 0)
(51.8901 25.1931 2.74906e-18)
(51.9725 25.8383 4.50822e-18)
(47.8336 24.3298 -9.18731e-18)
(28.1429 14.861 -2.96108e-18)
(39.2931 0.0200419 1.7845e-18)
(40.8403 -0.00173074 1.97376e-18)
(40.8646 0.252973 1.71301e-20)
(40.9503 0.295822 -1.19307e-18)
(40.9755 0.475649 -2.68212e-18)
(41.0548 0.573209 1.51436e-18)
(41.129 0.710509 -3.35024e-18)
(41.2087 0.856478 9.04549e-19)
(41.2919 1.01343 -2.06459e-18)
(41.4002 1.17554 -1.18748e-18)
(41.5069 1.34698 2.67928e-18)
(41.6016 1.52946 -1.60217e-18)
(41.7028 1.71882 -1.53576e-18)
(41.8038 1.92716 4.82917e-23)
(41.9213 2.14643 -8.2814e-19)
(42.0393 2.38054 1.05512e-18)
(42.1612 2.63212 -1.2318e-18)
(42.2975 2.89963 0)
(42.433 3.20057 0)
(42.5552 3.5419 0)
(42.6817 3.93281 -2.26943e-19)
(42.8376 4.35576 -7.92622e-19)
(42.9833 4.79361 -7.80191e-19)
(43.1145 5.25322 -3.06116e-19)
(43.2332 5.69957 0)
(43.3238 6.17967 0)
(43.4144 6.68698 7.10599e-19)
(43.5919 7.22967 -3.95715e-19)
(43.7924 7.83116 -8.46675e-20)
(43.9933 8.484 1.02808e-19)
(44.2006 9.1857 5.38653e-20)
(44.4405 9.93558 -2.51277e-19)
(44.7868 10.6974 1.71863e-19)
(45.1727 11.4927 -4.16586e-19)
(45.543 12.3275 3.50124e-19)
(45.8958 13.1857 2.36819e-19)
(46.2617 14.0898 1.58147e-19)
(46.7219 15.0309 1.76662e-19)
(47.2449 15.9986 1.2988e-19)
(47.8391 16.951 6.21396e-19)
(48.5013 17.8834 -3.06685e-19)
(49.1948 18.8301 1.79313e-18)
(49.9654 19.802 -1.99453e-18)
(50.8248 20.7687 0)
(51.7535 21.7042 0)
(52.7171 22.7481 0)
(53.4795 23.7602 0)
(53.1933 24.1565 0)
(47.8593 22.1265 -5.48537e-18)
(26.0603 12.1321 9.02694e-18)
(39.2705 0.0259812 -1.78814e-18)
(40.9741 -0.0306483 0)
(41.0059 0.235742 0)
(41.1029 0.259101 1.21449e-18)
(41.1411 0.454223 1.30893e-18)
(41.2143 0.559669 -1.51743e-18)
(41.2887 0.707313 1.68449e-18)
(41.3753 0.835309 -9.07436e-19)
(41.4751 0.965146 9.76904e-19)
(41.5752 1.10997 1.18955e-18)
(41.6977 1.26188 -1.24647e-18)
(41.8177 1.43287 1.2497e-18)
(41.9399 1.61994 2.28278e-18)
(42.0696 1.82256 0)
(42.2095 2.04767 9.54132e-19)
(42.3577 2.29302 -1.18949e-18)
(42.4955 2.57596 1.09079e-21)
(42.6381 2.87383 -1.22452e-18)
(42.766 3.19979 1.52505e-18)
(42.8891 3.51986 0)
(43.004 3.85915 0)
(43.1725 4.22287 8.80046e-19)
(43.3578 4.6289 1.09831e-19)
(43.559 5.092 -1.02556e-18)
(43.7896 5.61491 -2.87388e-19)
(44.0492 6.17699 8.97436e-19)
(44.3092 6.78418 -1.31551e-18)
(44.5291 7.41144 9.35908e-19)
(44.7873 8.05254 -5.26738e-19)
(45.05 8.70949 3.39859e-19)
(45.322 9.3757 -1.76331e-19)
(45.6189 10.0709 6.01852e-19)
(45.8732 10.8116 1.14237e-21)
(46.1246 11.5725 2.27946e-19)
(46.4534 12.34 0)
(46.9032 13.1477 -1.72493e-19)
(47.4692 13.9642 -1.41225e-19)
(48.0023 14.775 1.91498e-19)
(48.5563 15.5773 9.99014e-19)
(49.1762 16.4252 -8.92311e-19)
(49.8403 17.2937 -2.75495e-19)
(50.5734 18.1447 -2.15592e-18)
(51.3692 18.9552 5.26116e-18)
(52.2311 19.7662 5.55792e-19)
(53.1777 20.5353 6.68815e-19)
(54.2338 21.466 -2.35457e-18)
(54.8135 22.139 0)
(53.9315 22.2688 4.81194e-18)
(46.9376 19.6797 -2.52894e-18)
(23.0898 9.32707 0)
(39.2544 0.0256144 6.67417e-21)
(41.1334 -0.0338711 -5.43593e-23)
(41.1783 0.243448 -1.04056e-18)
(41.2603 0.244459 0)
(41.3 0.435144 -1.99287e-20)
(41.3936 0.500167 -6.73195e-19)
(41.4711 0.646011 0)
(41.5676 0.782789 8.5336e-19)
(41.6788 0.927091 -1.03984e-18)
(41.8044 1.08091 6.68895e-20)
(41.9283 1.24765 1.15838e-18)
(42.0634 1.41669 -6.17152e-19)
(42.1981 1.6077 -8.34235e-19)
(42.3451 1.81087 0)
(42.4992 2.03307 0)
(42.6674 2.2668 0)
(42.8372 2.52061 -9.08577e-19)
(43.0348 2.79379 1.22991e-18)
(43.234 3.1115 -2.14511e-18)
(43.4279 3.48003 1.75952e-19)
(43.6158 3.89373 -3.87356e-19)
(43.8166 4.31386 -6.72751e-19)
(44.0394 4.75967 1.80254e-18)
(44.2389 5.20219 1.47873e-18)
(44.4332 5.65293 0)
(44.6082 6.12921 -7.07853e-19)
(44.7753 6.62578 1.22422e-18)
(45.0302 7.15031 -7.4139e-19)
(45.3209 7.73822 2.59338e-19)
(45.6152 8.35444 -1.3271e-19)
(45.9414 9.01719 8.04496e-20)
(46.2992 9.7196 -1.54732e-19)
(46.7487 10.416 1.25921e-19)
(47.2351 11.1366 1.95504e-19)
(47.7067 11.8857 1.8366e-19)
(48.1582 12.6418 -5.23653e-19)
(48.6201 13.4199 8.49778e-19)
(49.1784 14.2139 -7.27189e-19)
(49.7783 15.0194 7.85078e-21)
(50.4411 15.788 0)
(51.1601 16.5216 1.57661e-18)
(51.9016 17.2462 1.23428e-18)
(52.707 17.9714 2.27043e-19)
(53.5871 18.6579 -3.83785e-18)
(54.5297 19.3137 -2.00686e-19)
(55.4629 20.0907 -2.87837e-18)
(55.6618 20.4651 0)
(54.0526 20.3044 5.00312e-18)
(45.2688 17.1919 -8.42624e-18)
(19.1296 6.52451 0)
(39.218 0.0252368 0)
(41.2594 -0.0647981 0)
(41.3302 0.199052 5.49249e-19)
(41.4164 0.180838 -3.50302e-20)
(41.4585 0.390735 6.29251e-19)
(41.5522 0.452789 6.96768e-19)
(41.6396 0.59061 0)
(41.7431 0.691271 -8.55323e-19)
(41.852 0.816303 9.09254e-19)
(41.9872 0.944585 0)
(42.1357 1.09004 -1.71558e-18)
(42.2901 1.25038 -3.21051e-20)
(42.454 1.42876 -8.59792e-20)
(42.6239 1.62835 9.58619e-20)
(42.8141 1.85406 0)
(43.0138 2.10412 0)
(43.2008 2.38857 6.26137e-19)
(43.3889 2.68786 4.55683e-19)
(43.5822 2.99168 5.87213e-20)
(43.7712 3.2991 7.94597e-20)
(43.96 3.63529 -1.73947e-19)
(44.1813 4.01627 9.51762e-20)
(44.4593 4.41841 -8.48653e-19)
(44.749 4.90412 -3.49556e-19)
(45.0589 5.41947 2.69742e-19)
(45.4048 5.96574 3.75852e-19)
(45.7554 6.55901 -3.86485e-19)
(46.0638 7.16934 -2.68428e-19)
(46.4089 7.76999 0)
(46.741 8.39148 0)
(47.1024 9.01741 0)
(47.4801 9.65431 6.54511e-20)
(47.8049 10.3264 -9.7406e-20)
(48.1358 11.0026 -7.86043e-20)
(48.5388 11.6748 3.04114e-19)
(49.0683 12.3723 4.51699e-19)
(49.6972 13.0676 -1.85185e-19)
(50.2791 13.7363 8.16624e-19)
(50.8933 14.3755 -5.0466e-19)
(51.5549 15.0373 -7.82478e-19)
(52.248 15.6993 -1.05704e-18)
(52.9965 16.3314 1.17863e-18)
(53.7991 16.9077 0)
(54.6524 17.4677 2.19267e-18)
(55.6114 18.0357 -1.18147e-18)
(56.3508 18.5573 1.52875e-18)
(56.3153 18.7114 0)
(53.4955 18.196 -2.43792e-18)
(42.1455 14.4266 1.45229e-18)
(14.0868 3.79522 0)
(39.1826 0.0263844 3.96112e-19)
(41.3957 -0.0998032 0)
(41.4705 0.168075 9.85169e-19)
(41.5483 0.127956 -5.30476e-19)
(41.6082 0.31288 -6.10758e-19)
(41.7147 0.349581 2.06024e-20)
(41.8055 0.486136 -2.29291e-20)
(41.9332 0.589171 0)
(42.0703 0.710823 -8.83318e-19)
(42.2157 0.854506 4.48428e-19)
(42.3861 0.995482 5.55212e-19)
(42.5618 1.15922 -6.48888e-19)
(42.7469 1.33745 3.17093e-19)
(42.9355 1.53256 8.94568e-20)
(43.1368 1.74402 -4.94242e-20)
(43.361 1.97073 0)
(43.6029 2.21558 5.41764e-19)
(43.8524 2.49705 -5.90679e-19)
(44.1193 2.82621 1.27908e-19)
(44.3847 3.20178 -3.48267e-21)
(44.637 3.59771 -7.8463e-20)
(44.8873 4.01689 0)
(45.1714 4.44156 -7.9372e-20)
(45.4364 4.84784 -2.12913e-19)
(45.7069 5.29332 -3.8232e-19)
(45.9721 5.75703 -3.77886e-19)
(46.2027 6.22329 0)
(46.5312 6.72533 1.61619e-19)
(46.891 7.29081 7.30231e-20)
(47.292 7.86324 -3.04506e-20)
(47.7051 8.47085 -1.035e-19)
(48.1331 9.1107 -1.07997e-19)
(48.6512 9.73302 2.73808e-19)
(49.1991 10.3738 -1.01154e-19)
(49.7383 11.0298 -3.06765e-19)
(50.2466 11.677 -1.77062e-19)
(50.7521 12.3267 -3.23444e-19)
(51.3424 12.9833 0)
(51.9474 13.6414 -6.94614e-19)
(52.6023 14.2528 1.53292e-18)
(53.3027 14.8117 1.05068e-18)
(54.0198 15.3348 -1.28465e-18)
(54.7793 15.8427 1.83228e-18)
(55.6088 16.3072 -9.51057e-19)
(56.5163 16.7887 2.54045e-18)
(56.8486 17.0245 2.72379e-22)
(56.1936 16.9341 0)
(51.9364 15.9252 5.01967e-18)
(38.2009 11.6007 -4.3053e-18)
(7.96323 1.11707 -1.58927e-18)
(39.1102 0.01789 -3.96441e-19)
(41.4906 -0.135197 4.15318e-19)
(41.6103 0.102632 -4.80637e-19)
(41.6624 0.046588 5.22906e-19)
(41.7329 0.232919 2.83423e-19)
(41.8324 0.233736 1.98969e-20)
(41.9342 0.358994 -1.10236e-20)
(42.0668 0.424723 0)
(42.2083 0.528008 3.88946e-19)
(42.3815 0.634341 -6.78326e-19)
(42.5634 0.764246 0)
(42.7651 0.907767 3.47243e-20)
(42.9771 1.07074 -9.75276e-20)
(43.2062 1.2609 -2.78979e-19)
(43.4513 1.47239 3.91674e-19)
(43.7021 1.71686 -1.70992e-21)
(43.9524 1.98824 -5.35805e-20)
(44.2044 2.2687 0)
(44.4563 2.54272 2.86488e-19)
(44.7203 2.8349 -2.6309e-19)
(45.0015 3.17032 3.39063e-20)
(45.2891 3.54144 0)
(45.6329 3.94848 0)
(46.0054 4.42614 1.89076e-19)
(46.3798 4.9123 -2.78566e-20)
(46.7896 5.43283 1.38973e-19)
(47.2224 6.00901 -4.25166e-20)
(47.6105 6.57357 1.8341e-20)
(48.0056 7.11995 -5.22926e-20)
(48.3979 7.70505 8.35786e-21)
(48.8148 8.29291 4.80622e-20)
(49.2483 8.86503 -2.07104e-19)
(49.6187 9.46953 1.67614e-19)
(49.9976 10.0607 -1.82047e-19)
(50.4345 10.6449 -2.55463e-19)
(50.9917 11.244 -2.86926e-19)
(51.6279 11.8327 0)
(52.2071 12.3727 8.70287e-19)
(52.8255 12.8729 -3.31377e-19)
(53.4683 13.3708 -8.73175e-19)
(54.1195 13.8665 1.08882e-18)
(54.805 14.3344 -4.71125e-20)
(55.5411 14.7305 -9.44429e-19)
(56.3447 15.1302 -4.16287e-20)
(57.03 15.4492 -1.24907e-18)
(57.1014 15.4996 -3.21976e-18)
(55.6955 15.1525 1.92203e-18)
(49.4211 13.5086 0)
(32.3778 8.27129 -2.83318e-18)
(4.36358 -0.276993 5.43815e-18)
(39.0145 0.00183444 -7.25504e-22)
(41.5631 -0.171033 -4.18084e-19)
(41.6987 0.0339384 1.08426e-19)
(41.7535 -0.0366649 3.94021e-21)
(41.851 0.115963 -2.83567e-19)
(41.9452 0.101234 0)
(42.0762 0.212918 0)
(42.2325 0.261016 1.14566e-20)
(42.398 0.372804 -6.26038e-19)
(42.5948 0.47264 2.27949e-19)
(42.8066 0.597295 -1.49456e-20)
(43.0276 0.735345 3.28971e-20)
(43.2622 0.891057 -1.94318e-19)
(43.5026 1.0634 1.92896e-19)
(43.7626 1.25938 -5.06407e-19)
(44.0537 1.45582 8.44819e-20)
(44.3598 1.68831 -8.92445e-20)
(44.6855 1.97285 -2.40877e-20)
(45.0202 2.30572 2.75498e-19)
(45.3469 2.65989 1.7982e-19)
(45.6695 3.02824 2.93105e-21)
(45.973 3.42709 2.85455e-20)
(46.3135 3.81567 0)
(46.6467 4.19796 1.03526e-19)
(46.9765 4.62354 3.37255e-21)
(47.3209 5.05117 -5.32194e-20)
(47.6183 5.47996 -5.67779e-21)
(47.9933 5.97336 1.26582e-20)
(48.4123 6.51027 0)
(48.8914 7.02473 2.51571e-20)
(49.3487 7.57317 1.57802e-19)
(49.8203 8.15474 1.7249e-19)
(50.3768 8.7122 -9.62196e-20)
(50.9514 9.28572 2.94577e-19)
(51.5229 9.86376 -2.70356e-19)
(52.0516 10.4225 -1.89845e-19)
(52.5555 10.9694 0)
(53.1223 11.5249 -5.76456e-19)
(53.6767 12.0733 -4.07345e-19)
(54.268 12.5785 4.55006e-19)
(54.8971 13.0067 -5.88026e-19)
(55.5421 13.3776 7.32326e-19)
(56.2082 13.7438 0)
(56.977 14.1018 5.19638e-19)
(57.2553 14.2239 0)
(56.8202 14.1299 8.39088e-19)
(53.9764 13.3995 -1.92682e-18)
(45.1507 11.0224 1.10495e-18)
(25.3468 5.12223 0)
(1.43449 -0.608456 3.44328e-19)
(38.8706 -0.035465 -8.71112e-23)
(41.6061 -0.2221 -9.60062e-23)
(41.7637 -0.0469763 -1.1178e-19)
(41.8026 -0.132956 -4.69499e-22)
(41.9027 -0.0244857 -3.56256e-21)
(41.9938 -0.0516722 -5.67727e-22)
(42.1365 0.0267986 6.31946e-22)
(42.3014 0.0559288 -1.36243e-21)
(42.4854 0.128678 1.99122e-19)
(42.6876 0.206034 3.18555e-21)
(42.9173 0.295733 1.75192e-21)
(43.165 0.409479 -3.84427e-21)
(43.4373 0.542849 -1.35756e-19)
(43.7285 0.701661 1.48413e-19)
(44.0227 0.889786 1.65728e-19)
(44.3289 1.11687 -8.46862e-20)
(44.6456 1.34356 8.6605e-20)
(44.9539 1.57613 2.53425e-21)
(45.2844 1.82099 2.5597e-21)
(45.6323 2.11117 0)
(46.0094 2.42524 2.41821e-21)
(46.3733 2.78743 1.15637e-21)
(46.7804 3.19067 -1.29262e-21)
(47.2281 3.63956 0)
(47.6776 4.10679 0)
(48.1344 4.61202 -1.73834e-20)
(48.6187 5.15468 0)
(49.0535 5.65415 -1.26753e-20)
(49.5067 6.15765 0)
(49.9349 6.71451 2.23062e-21)
(50.3868 7.25795 -8.56524e-20)
(50.8487 7.77764 7.26298e-21)
(51.2383 8.3282 -1.73474e-19)
(51.6371 8.85851 1.75129e-20)
(52.0825 9.38138 1.24702e-19)
(52.6242 9.9161 2.13597e-19)
(53.229 10.4298 -8.23681e-21)
(53.7706 10.8796 0)
(54.3548 11.2933 -6.41467e-21)
(54.933 11.676 7.90744e-21)
(55.4931 12.0684 0)
(56.0614 12.4493 -1.17531e-20)
(56.741 12.797 -5.68259e-20)
(57.2064 13.031 -4.40694e-19)
(57.2057 13.0832 -9.5206e-21)
(56.0209 12.8312 0)
(51.504 11.7891 0)
(39.5804 8.86926 1.48057e-19)
(15.4553 2.44479 -1.46458e-19)
(-0.871477 -0.200428 3.42098e-19)
(38.681 -0.0637899 -1.69507e-19)
(41.6043 -0.261299 -1.86064e-19)
(41.779 -0.126896 -1.0193e-19)
(41.8431 -0.240037 -1.15658e-19)
(41.9472 -0.156767 -1.17494e-19)
(42.0559 -0.206059 1.33026e-19)
(42.2311 -0.149733 0)
(42.4142 -0.125928 0)
(42.6233 -0.0721567 -8.91693e-20)
(42.8588 -0.010154 -3.18517e-21)
(43.1155 0.0713868 9.7264e-20)
(43.3795 0.170231 7.3106e-21)
(43.6585 0.283218 1.10859e-19)
(43.9578 0.420346 -1.16716e-19)
(44.2853 0.566457 -1.35515e-19)
(44.6371 0.734596 0)
(45.0187 0.954608 0)
(45.416 1.22435 -2.53388e-21)
(45.8046 1.51936 -2.55931e-21)
(46.1847 1.83718 6.46536e-20)
(46.5704 2.17388 -2.41779e-21)
(46.9438 2.53369 0)
(47.3402 2.89488 0)
(47.7398 3.26157 1.59969e-21)
(48.1239 3.65292 -1.22259e-20)
(48.5401 4.03734 2.45547e-21)
(48.9223 4.44418 0)
(49.3399 4.93451 -4.25228e-20)
(49.8109 5.4332 0)
(50.3246 5.90847 -2.23008e-21)
(50.8194 6.41703 0)
(51.3144 6.95836 0)
(51.8859 7.46992 5.52354e-20)
(52.4587 7.99814 7.32505e-20)
(53.0299 8.52823 0)
(53.5528 9.03219 0)
(54.024 9.52265 8.23298e-21)
(54.5343 10.0251 0)
(55.0059 10.5126 6.41077e-21)
(55.5101 10.98 -2.66253e-19)
(56.0391 11.3481 3.24942e-19)
(56.6097 11.6636 3.93694e-20)
(57.1897 12.0216 2.89811e-20)
(57.3242 12.1619 -4.90592e-19)
(56.8732 12.1505 -3.28603e-19)
(54.4039 11.7515 1.84705e-18)
(47.1521 10.2377 -8.43141e-19)
(30.7848 6.47541 -9.90018e-19)
(6.15522 0.853202 8.17468e-19)
(-2.49864 0.199304 0)
(38.4373 -0.106823 1.68766e-19)
(41.5748 -0.300293 -1.7133e-19)
(41.7586 -0.20751 1.00337e-19)
(41.809 -0.337469 -1.0604e-19)
(41.9063 -0.292281 1.25474e-19)
(42.0281 -0.363685 -1.37365e-19)
(42.202 -0.346435 -9.09378e-21)
(42.3944 -0.361565 1.01251e-20)
(42.6066 -0.339762 7.84288e-20)
(42.8487 -0.316644 1.19022e-20)
(43.1226 -0.274368 -1.03748e-19)
(43.4282 -0.214112 -2.08294e-19)
(43.7545 -0.126441 1.01501e-19)
(44.0951 -0.0176216 1.10546e-19)
(44.4395 0.136099 3.8444e-19)
(44.7982 0.303046 -1.51942e-20)
(45.1715 0.466898 1.69603e-20)
(45.561 0.653601 -1.18158e-19)
(45.9771 0.875446 -1.40384e-20)
(46.4111 1.13504 -4.8898e-20)
(46.869 1.42778 0)
(47.3092 1.7663 0)
(47.774 2.13818 0)
(48.304 2.56237 0)
(48.8281 3.01648 8.40202e-21)
(49.327 3.51888 -9.26927e-20)
(49.8393 4.01495 0)
(50.3233 4.4764 1.52241e-19)
(50.8173 4.95323 0)
(51.2764 5.48294 0)
(51.7538 5.99265 -2.80709e-19)
(52.2308 6.48677 1.88913e-19)
(52.628 7.00957 -4.54719e-19)
(53.0392 7.51387 1.33655e-19)
(53.4849 8.01111 0)
(53.9964 8.52234 0)
(54.5567 9.00542 3.0006e-19)
(55.0483 9.42458 -1.04837e-18)
(55.585 9.81122 0)
(56.0816 10.1396 -8.06875e-19)
(56.5626 10.5149 1.25279e-18)
(57.1061 10.9651 -1.42268e-18)
(57.3657 11.2042 8.15119e-19)
(57.2608 11.3114 -1.0776e-18)
(55.9992 11.2985 2.74954e-18)
(51.6683 10.5827 -2.45741e-18)
(40.9291 8.43613 1.62249e-18)
(20.0296 3.8582 -3.60908e-18)
(0.941172 0.452067 4.31076e-18)
(-3.2408 0.365565 -2.78765e-18)
(38.1724 -0.0996336 3.15961e-19)
(41.4975 -0.322329 1.012e-20)
(41.6923 -0.280054 0)
(41.782 -0.44037 2.19463e-19)
(41.8872 -0.42416 4.83459e-19)
(42.0327 -0.508817 -1.63707e-20)
(42.2182 -0.513039 0)
(42.4378 -0.550544 0)
(42.6696 -0.557416 2.03501e-20)
(42.9329 -0.55658 -2.26697e-20)
(43.2244 -0.535559 3.71646e-19)
(43.53 -0.49905 -1.84498e-19)
(43.8641 -0.439509 -2.19435e-19)
(44.2303 -0.363774 2.12157e-19)
(44.6228 -0.277805 -2.37085e-19)
(45.0414 -0.136317 -2.67912e-20)
(45.4878 0.0473266 2.40994e-19)
(45.9416 0.263543 3.16869e-19)
(46.3835 0.505402 0)
(46.8184 0.778703 -7.2926e-20)
(47.2715 1.07084 -4.98314e-20)
(47.7197 1.39548 0)
(48.1661 1.73478 -2.53112e-20)
(48.6101 2.06528 0)
(49.0579 2.42467 0)
(49.5439 2.77285 9.24117e-20)
(50.0178 3.18169 8.95529e-20)
(50.4912 3.65528 2.60661e-19)
(50.9915 4.14277 0)
(51.546 4.593 0)
(52.0658 5.08579 1.19298e-19)
(52.5836 5.60467 1.79255e-19)
(53.1689 6.09757 7.70343e-19)
(53.7441 6.61881 3.64263e-20)
(54.3116 7.13821 4.17876e-20)
(54.8143 7.62496 -9.64022e-19)
(55.2422 8.10002 -5.36498e-20)
(55.6988 8.59668 1.40021e-18)
(56.0911 9.0765 8.82742e-19)
(56.5207 9.57015 5.2022e-19)
(56.9967 9.97514 1.26404e-18)
(57.449 10.3387 8.08319e-20)
(57.5017 10.4886 -1.60214e-18)
(56.9142 10.7163 -1.02535e-18)
(54.3338 10.4742 -3.0016e-18)
(47.1396 9.39424 3.4205e-18)
(31.5413 6.45016 -1.52701e-18)
(7.1669 1.71022 0)
(-2.68455 0.698963 0)
(-3.5601 0.346128 5.44582e-19)
(37.8948 -0.138717 -9.30005e-19)
(41.3887 -0.358652 -3.3729e-19)
(41.5801 -0.329947 3.78683e-19)
(41.6501 -0.503537 -1.30342e-20)
(41.754 -0.526913 -9.24688e-19)
(41.9009 -0.653261 1.58929e-20)
(42.0853 -0.696372 0)
(42.304 -0.771438 5.86114e-19)
(42.5376 -0.821962 1.95318e-20)
(42.8065 -0.866076 -9.51859e-22)
(43.1151 -0.899363 -7.50167e-19)
(43.4638 -0.907311 3.68725e-19)
(43.8307 -0.893899 1.85507e-21)
(44.2142 -0.842103 -1.85158e-19)
(44.6183 -0.759998 0)
(45.0315 -0.677638 0)
(45.473 -0.570218 -1.8815e-19)
(45.9553 -0.429888 -2.2337e-19)
(46.4648 -0.252418 0)
(46.9809 -0.0317313 7.26982e-20)
(47.5045 0.227441 4.96666e-20)
(48.0284 0.523458 -5.11351e-21)
(48.5719 0.869812 -3.19503e-20)
(49.1861 1.27512 9.19457e-20)
(49.7543 1.71037 3.78421e-20)
(50.2908 2.20268 8.10656e-20)
(50.8268 2.66191 -2.75854e-19)
(51.3657 3.10438 -2.60815e-19)
(51.8995 3.55991 3.97474e-19)
(52.39 4.08315 -5.1971e-19)
(52.9037 4.57755 0)
(53.3919 5.06343 0)
(53.7978 5.58212 5.02097e-20)
(54.2258 6.07928 -6.20617e-19)
(54.6728 6.58724 8.30501e-19)
(55.1772 7.11916 1.54145e-18)
(55.711 7.62857 -5.8404e-19)
(56.1654 8.06919 -1.49524e-18)
(56.668 8.48035 -1.77132e-18)
(57.1188 8.80592 -1.09276e-18)
(57.6216 9.29357 -7.35903e-20)
(57.7892 9.63786 1.40244e-18)
(57.5459 9.86657 0)
(56.0407 9.88593 1.01416e-18)
(51.2538 9.39732 1.17344e-18)
(40.0756 7.63616 1.31295e-18)
(19.2678 3.95178 4.42174e-18)
(0.349234 1.23881 -1.65139e-18)
(-4.66195 1.11509 0)
(-3.4685 0.558855 0)
(37.5623 -0.12485 9.8998e-21)
(41.2449 -0.372791 6.83873e-19)
(41.4703 -0.403288 -3.89769e-19)
(41.5642 -0.581548 8.18485e-19)
(41.6698 -0.621347 4.83954e-19)
(41.8232 -0.766717 -3.29752e-22)
(42.0149 -0.835478 -1.69151e-20)
(42.2429 -0.93942 -5.49409e-19)
(42.4864 -1.01654 -3.94687e-20)
(42.7698 -1.09036 -4.01895e-20)
(43.0855 -1.146 3.57712e-19)
(43.4299 -1.19014 4.70579e-20)
(43.8167 -1.21151 3.70752e-19)
(44.2346 -1.22383 3.7531e-19)
(44.6895 -1.19321 -4.44786e-20)
(45.1726 -1.11096 4.96148e-20)
(45.6698 -0.99917 0)
(46.1728 -0.852985 1.41805e-19)
(46.6789 -0.671937 0)
(47.1945 -0.458369 0)
(47.7321 -0.209764 0)
(48.2438 0.0787786 -2.58381e-20)
(48.732 0.37425 9.14511e-20)
(49.2319 0.679938 -1.25158e-19)
(49.7762 1.01066 0)
(50.3295 1.34612 -9.39819e-20)
(50.8832 1.75338 -3.86829e-19)
(51.4078 2.22333 -6.57739e-19)
(51.9494 2.70388 -6.19313e-19)
(52.5428 3.13834 4.99762e-19)
(53.0814 3.63142 -6.91747e-19)
(53.6313 4.1452 4.11746e-19)
(54.2527 4.64003 1.12247e-18)
(54.86 5.1914 0)
(55.4586 5.72684 8.94964e-19)
(55.9488 6.2293 -2.08378e-18)
(56.3514 6.71831 -7.05855e-20)
(56.7772 7.2426 1.47913e-18)
(57.1381 7.75469 8.86232e-19)
(57.5655 8.35312 0)
(57.8948 8.80734 1.24681e-18)
(57.8905 9.02591 -1.51311e-18)
(57.0011 9.1978 3.41338e-18)
(53.9108 9.1572 0)
(45.9096 8.12295 -4.55784e-18)
(29.4216 5.61785 1.25005e-18)
(5.64153 1.89175 -1.43711e-18)
(-3.59615 1.45178 -1.60584e-18)
(-5.50915 1.22943 3.54931e-18)
(-3.25083 0.720396 4.08759e-21)
(37.2394 -0.149125 6.05075e-19)
(41.1103 -0.39349 -6.63807e-19)
(41.2782 -0.401341 7.36665e-19)
(41.3691 -0.622397 -1.62617e-18)
(41.4584 -0.682132 9.15961e-19)
(41.6046 -0.861471 -6.05466e-20)
(41.7871 -0.96881 5.59175e-19)
(42.0026 -1.12204 0)
(42.2376 -1.24333 6.08076e-19)
(42.5136 -1.37267 -6.85441e-19)
(42.8403 -1.48588 2.65376e-21)
(43.2131 -1.58445 4.58334e-20)
(43.6096 -1.65486 -3.69511e-19)