/*--------------------------------*- C++ -*----------------------------------*\
| =========                 |                                                 |
| \\      /  F ield         | OpenFOAM: The Open Source CFD Toolbox           |
|  \\    /   O peration     | Version:  v1912                                 |
|   \\  /    A nd           | Website:  www.openfoam.com                      |
|    \\/     M anipulation  |                                                 |
\*---------------------------------------------------------------------------*/
FoamFile
{
    version     2.0;
    format      ascii;
    class       surfaceScalarField;
    location    "0.08";
    object      phi;
}
// * * * * * * * * * * * * * * * * * * * * * * * * * * * * * * * * * * * * * //

dimensions      [0 3 -1 0 0 0 0];
oriented        oriented;


internalField   nonuniform List<scalar> 
13060
(
0.00568567
0.988488
-0.994173
0.00741617
0.945775
-0.947506
0.00861758
0.899925
-0.901127
0.00953686
0.856584
-0.857503
0.0102438
0.815839
-0.816546
0.0108568
0.777577
-0.77819
0.0113525
0.740927
-0.741423
0.0118818
0.70589
-0.706419
0.0123307
0.672496
-0.672945
0.0127543
0.6405
-0.640923
0.0130833
0.609907
-0.610236
0.0133815
0.580724
-0.581022
0.0136463
0.552956
-0.553221
0.0138834
0.526564
-0.526801
0.0140523
0.501246
-0.501415
0.0142222
0.477016
-0.477186
0.0143023
0.453774
-0.453854
0.0142128
0.431692
-0.431603
0.0139074
0.410572
-0.410267
0.0135795
0.390372
-0.390044
0.0132792
0.371065
-0.370764
0.0130552
0.352653
-0.352429
0.0128612
0.33524
-0.335046
0.0126329
0.318639
-0.318411
0.0123647
0.30281
-0.302542
0.0120629
0.287744
-0.287442
0.011716
0.273423
-0.273076
0.0114371
0.259716
-0.259437
0.0111428
0.246715
-0.246421
0.0107644
0.23454
-0.234162
0.0102304
0.223064
-0.22253
0.00957613
0.212107
-0.211453
0.00890056
0.20166
-0.200985
0.00823629
0.191905
-0.191241
0.00750061
0.182691
-0.181955
0.00669933
0.173931
-0.17313
0.00588793
0.165707
-0.164896
0.00506613
0.158018
-0.157197
0.00420758
0.150796
-0.149937
0.00334889
0.143999
-0.143141
0.00250923
0.137613
-0.136773
0.00168839
0.131626
-0.130805
0.000900891
0.125984
-0.125196
0.000171849
0.120722
-0.119993
-0.000611436
0.115789
-0.115005
-0.00128044
0.111248
-0.110579
-0.00199783
0.10656
-0.105842
-0.00249137
0.102925
-0.102432
-0.00209375
0.0942931
-0.0946907
0.0648993
-0.0669931
0.00588514
0.982602
0.00714364
0.944517
0.0076538
0.899415
0.00765997
0.856578
0.00778868
0.81571
0.00787026
0.777495
0.00816354
0.740634
0.00827982
0.705773
0.00836148
0.672414
0.00845812
0.640403
0.00829853
0.610067
0.00816247
0.58086
0.0080297
0.553089
0.00799391
0.5266
0.00797666
0.501263
0.0079985
0.476994
0.0081078
0.453664
0.0083685
0.431432
0.0086551
0.410286
0.00880237
0.390225
0.00879156
0.371075
0.00865297
0.352791
0.00840551
0.335487
0.00809349
0.318951
0.00771694
0.303187
0.00729848
0.288162
0.00680561
0.273916
0.00619147
0.26033
0.00547455
0.247432
0.00480047
0.235214
0.00427295
0.223592
0.00380652
0.212574
0.003251
0.202216
0.00265705
0.192499
0.00206637
0.183281
0.00147658
0.174521
0.000861529
0.166322
0.000243716
0.158636
-0.000359441
0.151399
-0.000985339
0.144625
-0.00160636
0.138234
-0.0021877
0.132207
-0.00272761
0.126523
-0.00320731
0.121202
-0.00359041
0.116172
-0.00388895
0.111547
-0.00415515
0.106826
-0.00385791
0.102628
-0.00275691
0.0931921
0.0621424
0.00573229
0.97687
0.00634679
0.943902
0.00634613
0.899416
0.00612979
0.856794
0.0059009
0.815939
0.00584929
0.777547
0.00573059
0.740753
0.00543762
0.706066
0.00535912
0.672493
0.00515595
0.640606
0.00503744
0.610185
0.00491252
0.580985
0.004752
0.55325
0.00463197
0.52672
0.00451228
0.501383
0.00433824
0.477168
0.003973
0.454029
0.00340979
0.431995
0.00279411
0.410901
0.00229127
0.390728
0.00189974
0.371467
0.00158267
0.353108
0.00129886
0.335771
0.000984525
0.319266
0.000634351
0.303537
0.000285495
0.288511
-1.56261e-05
0.274217
-0.000230057
0.260545
-0.00040012
0.247602
-0.000719605
0.235534
-0.0012345
0.224107
-0.00179848
0.213138
-0.00230222
0.20272
-0.00278444
0.192981
-0.00328595
0.183783
-0.00379616
0.175031
-0.00426945
0.166795
-0.00471642
0.159083
-0.00516339
0.151846
-0.00555374
0.145015
-0.00587411
0.138554
-0.00612893
0.132462
-0.00630276
0.126697
-0.00637956
0.121279
-0.0063455
0.116138
-0.00617414
0.111375
-0.00595115
0.106603
-0.0050817
0.101759
-0.00337455
0.091485
0.0587679
0.00472124
0.972149
0.00493673
0.943687
0.0045288
0.899824
0.00377272
0.85755
0.0030539
0.816658
0.00241161
0.778189
0.00191002
0.741254
0.00148119
0.706495
0.00102318
0.672951
0.000435342
0.641194
-8.99475e-05
0.610711
-0.000554901
0.58145
-0.000925258
0.55362
-0.0011983
0.526993
-0.0014728
0.501658
-0.00168052
0.477376
-0.00178734
0.454136
-0.00174626
0.431954
-0.00184287
0.410998
-0.00204896
0.390934
-0.00233376
0.371752
-0.00266791
0.353442
-0.0030214
0.336125
-0.00342537
0.31967
-0.00386912
0.30398
-0.00434359
0.288986
-0.00488068
0.274754
-0.0055353
0.261199
-0.00625813
0.248325
-0.00684292
0.236118
-0.00725972
0.224523
-0.00761985
0.213498
-0.00802505
0.203125
-0.0084213
0.193377
-0.00876418
0.184126
-0.00906932
0.175337
-0.00937151
0.167098
-0.00963629
0.159348
-0.00980744
0.152017
-0.00991164
0.14512
-0.00995649
0.138599
-0.00991194
0.132418
-0.00976896
0.126554
-0.00950368
0.121014
-0.00910866
0.115743
-0.00854255
0.110809
-0.00786067
0.105921
-0.00655033
0.100448
-0.00414437
0.089079
0.0546235
0.0034761
0.968673
0.00311647
0.944046
0.00225851
0.900682
0.00162408
0.858185
0.00070483
0.817577
-0.000237262
0.779131
-0.00112578
0.742143
-0.00184325
0.707213
-0.00235886
0.673466
-0.00286553
0.641701
-0.00317227
0.611018
-0.00355136
0.581829
-0.00400325
0.554072
-0.00440939
0.527399
-0.00486058
0.502109
-0.00545981
0.477975
-0.00628297
0.454959
-0.00722859
0.4329
-0.00800312
0.411773
-0.00865366
0.391584
-0.00929801
0.372396
-0.0098648
0.354009
-0.010342
0.336602
-0.0107686
0.320096
-0.0111791
0.304391
-0.0115558
0.289362
-0.0118351
0.275033
-0.0119811
0.261345
-0.0120603
0.248404
-0.0122882
0.236346
-0.0127142
0.224949
-0.0131537
0.213937
-0.0134819
0.203453
-0.0137504
0.193646
-0.0139963
0.184371
-0.0141936
0.175534
-0.0142891
0.167193
-0.0143079
0.159367
-0.014289
0.151998
-0.0141704
0.145001
-0.0139269
0.138355
-0.0135673
0.132058
-0.0130835
0.12607
-0.0124647
0.120395
-0.0117048
0.114983
-0.0107418
0.109846
-0.00969729
0.104877
-0.00795934
0.0987105
-0.00486041
0.0859801
0.0497631
0.00313065
0.965542
0.00108773
0.946089
-0.000601093
0.902371
-0.00141056
0.858994
-0.00254776
0.818714
-0.00342707
0.78001
-0.00450041
0.743216
-0.00557355
0.708286
-0.00659664
0.674489
-0.00756617
0.64267
-0.00837004
0.611821
-0.00920168
0.58266
-0.00986909
0.554739
-0.0105524
0.528082
-0.0110892
0.502646
-0.0114745
0.47836
-0.011745
0.45523
-0.011979
0.433133
-0.0123628
0.412156
-0.0128312
0.392053
-0.0132881
0.372853
-0.013825
0.354546
-0.0143792
0.337156
-0.014916
0.320633
-0.0154315
0.304906
-0.0159496
0.28988
-0.0165408
0.275624
-0.0172518
0.262056
-0.0179655
0.249118
-0.0184397
0.23682
-0.0186576
0.225167
-0.0188156
0.214095
-0.0190124
0.20365
-0.0191478
0.193781
-0.0191791
0.184403
-0.0191403
0.175495
-0.0190666
0.167119
-0.0189054
0.159206
-0.0186009
0.151694
-0.0181933
0.144593
-0.0176848
0.137847
-0.0170525
0.131426
-0.0162894
0.125307
-0.0153883
0.119494
-0.0143691
0.113964
-0.013233
0.10871
-0.0117843
0.103428
-0.00954739
0.0964736
-0.00565731
0.08209
0.0441058
0.00222187
0.96332
-0.000194372
0.948506
-0.00242517
0.904601
-0.00400796
0.860577
-0.00529314
0.82
-0.00635337
0.78107
-0.00752934
0.744392
-0.00848846
0.709245
-0.00943096
0.675432
-0.0103221
0.643561
-0.0111516
0.612651
-0.0120238
0.583533
-0.012783
0.555498
-0.0136079
0.528907
-0.0144744
0.503512
-0.0155306
0.479416
-0.0166868
0.456386
-0.0178329
0.43428
-0.0188029
0.413126
-0.0196888
0.392939
-0.0205286
0.373693
-0.0212102
0.355228
-0.0217949
0.337741
-0.0223367
0.321175
-0.0228314
0.305401
-0.0232333
0.290282
-0.0234417
0.275833
-0.0234699
0.262085
-0.0234345
0.249083
-0.0235659
0.236952
-0.0238604
0.225462
-0.0240979
0.214333
-0.0241733
0.203725
-0.0241615
0.193769
-0.0240896
0.184331
-0.0239253
0.175331
-0.0236143
0.166808
-0.023192
0.158783
-0.0227004
0.151202
-0.0220843
0.143977
-0.0213252
0.137088
-0.0204298
0.13053
-0.0194036
0.124281
-0.0182438
0.118334
-0.0169557
0.112676
-0.0156057
0.10736
-0.0137314
0.101554
-0.0110384
0.0937806
-0.00637492
0.0774265
0.0377309
0.00120135
0.962119
-0.000877461
0.950584
-0.00331461
0.907039
-0.00586647
0.863129
-0.00798162
0.822115
-0.00977223
0.782861
-0.0112152
0.745835
-0.0123919
0.710422
-0.0137858
0.676826
-0.0148889
0.644665
-0.0162278
0.61399
-0.01745
0.584755
-0.0185704
0.556619
-0.0195947
0.529932
-0.0204801
0.504398
-0.0211236
0.48006
-0.0216542
0.456917
-0.0222075
0.434833
-0.0227952
0.413714
-0.0233454
0.393489
-0.0239393
0.374287
-0.0246573
0.355946
-0.0253576
0.338441
-0.0259851
0.321802
-0.026569
0.305985
-0.0271452
0.290859
-0.0277807
0.276468
-0.0285099
0.262814
-0.0291683
0.249741
-0.0294992
0.237283
-0.029496
0.225459
-0.0294092
0.214246
-0.029341
0.203657
-0.0291752
0.193603
-0.0288625
0.184018
-0.0284483
0.174917
-0.0279828
0.166343
-0.0274073
0.158208
-0.0266652
0.15046
-0.0257964
0.143109
-0.0248143
0.136106
-0.0237139
0.12943
-0.0224926
0.12306
-0.0211561
0.116997
-0.0197025
0.111222
-0.0181458
0.105803
-0.0159782
0.0993861
-0.0127143
0.0905166
-0.00713024
0.0718425
0.0306006
0.000580101
0.961539
-0.00183409
0.952999
-0.00454592
0.90975
-0.00719595
0.865779
-0.0098164
0.824735
-0.0119758
0.78502
-0.0136631
0.747522
-0.0150804
0.711839
-0.0164326
0.678178
-0.0175587
0.645791
-0.0187533
0.615184
-0.0198198
0.585821
-0.0210067
0.557806
-0.0222147
0.53114
-0.023527
0.50571
-0.0249851
0.481518
-0.0264565
0.458388
-0.027813
0.436189
-0.0290784
0.414979
-0.0302462
0.394657
-0.031238
0.375279
-0.032014
0.356722
-0.0327054
0.339132
-0.0333263
0.322423
-0.0338596
0.306519
-0.034263
0.291262
-0.034423
0.276628
-0.0343287
0.26272
-0.0341475
0.24956
-0.0341381
0.237273
-0.0342837
0.225604
-0.0342977
0.21426
-0.0340826
0.203442
-0.0337544
0.193275
-0.0333543
0.183618
-0.0328429
0.174405
-0.0321547
0.165655
-0.0313366
0.15739
-0.0304386
0.149562
-0.0294163
0.142086
-0.0282585
0.134948
-0.0269706
0.128142
-0.0255704
0.12166
-0.0240699
0.115497
-0.022565
0.109717
-0.0206384
0.103877
-0.0181379
0.0968857
-0.0142694
0.0866481
-0.00781657
0.0653896
0.0227841
-0.000305455
0.961844
-0.00375735
0.95645
-0.00647516
0.912468
-0.00861305
0.867917
-0.0110066
0.827129
-0.0134211
0.787435
-0.0155965
0.749698
-0.0176579
0.7139
-0.0196345
0.680155
-0.0213944
0.647551
-0.0230819
0.616872
-0.024724
0.587464
-0.0262697
0.559351
-0.0276066
0.532477
-0.0287605
0.506864
-0.0296716
0.482429
-0.0304832
0.4592
-0.0313675
0.437074
-0.032166
0.415778
-0.03289
0.39538
-0.0337585
0.376147
-0.0346917
0.357655
-0.0355099
0.339951
-0.0362263
0.323139
-0.0368581
0.30715
-0.0374587
0.291863
-0.0381141
0.277283
-0.0388388
0.263444
-0.039432
0.250153
-0.0396141
0.237456
-0.0393919
0.225382
-0.039077
0.213945
-0.0387715
0.203137
-0.0383373
0.192841
-0.03772
0.183001
-0.0369761
0.173661
-0.0361777
0.164856
-0.0352685
0.15648
-0.0341915
0.148485
-0.0329853
0.14088
-0.0316677
0.13363
-0.0302565
0.126731
-0.0287513
0.120154
-0.0271586
0.113904
-0.0255356
0.108094
-0.0232662
0.101607
-0.0203361
0.0939557
-0.0155736
0.0818855
-0.00812997
0.057946
0.0146541
-0.00202969
0.963874
-0.00540474
0.959826
-0.00793273
0.914996
-0.0102142
0.870198
-0.0122024
0.829117
-0.0143491
0.789582
-0.0167625
0.752111
-0.0189874
0.716125
-0.0207897
0.681957
-0.0227749
0.649536
-0.024504
0.618601
-0.0260527
0.589012
-0.0276567
0.560955
-0.029329
0.534149
-0.0310813
0.508616
-0.0329484
0.484296
-0.0347452
0.460997
-0.0363515
0.43868
-0.0379644
0.417391
-0.039459
0.396875
-0.0405988
0.377287
-0.0415564
0.358613
-0.0424471
0.340841
-0.043213
0.323905
-0.0438254
0.307763
-0.0442489
0.292286
-0.0443757
0.27741
-0.0441783
0.263247
-0.0438605
0.249835
-0.0437158
0.237311
-0.0437209
0.225387
-0.0435457
0.21377
-0.0430889
0.20268
-0.0424972
0.192249
-0.0418355
0.182339
-0.041068
0.172894
-0.0401117
0.1639
-0.0390139
0.155383
-0.037834
0.147305
-0.0365414
0.139588
-0.0351326
0.132221
-0.0335986
0.125197
-0.0319758
0.118532
-0.0304334
0.112362
-0.0284974
0.106158
-0.0260171
0.0991268
-0.0223559
0.0902944
-0.0161229
0.0756526
-0.00664981
0.0484729
0.00800428
-0.00308986
0.966964
-0.00526856
0.962004
-0.00818302
0.917911
-0.011209
0.873224
-0.0135459
0.831454
-0.0158299
0.791866
-0.0183805
0.754662
-0.0209304
0.718675
-0.0233367
0.684363
-0.0256392
0.651838
-0.0278202
0.620782
-0.0299573
0.591149
-0.0318902
0.562888
-0.0336219
0.535881
-0.0351132
0.510107
-0.0363083
0.485491
-0.0374989
0.462187
-0.0387289
0.43991
-0.0397257
0.418388
-0.0407918
0.397941
-0.042043
0.378538
-0.0432219
0.359792
-0.0442324
0.341852
-0.045115
0.324788
-0.0458705
0.308518
-0.0465367
0.292952
-0.0472093
0.278083
-0.047933
0.263971
-0.0485108
0.250413
-0.0486281
0.237428
-0.0482757
0.225035
-0.047805
0.213299
-0.0473466
0.202221
-0.0467488
0.191651
-0.0459431
0.181533
-0.0449836
0.171934
-0.0439703
0.162887
-0.0428594
0.154272
-0.0415897
0.146035
-0.0401972
0.138195
-0.0386942
0.130719
-0.0371206
0.123623
-0.0355233
0.116934
-0.0338428
0.110681
-0.0315377
0.103853
-0.0286217
0.0962108
-0.0239297
0.0856024
-0.0157893
0.0675122
-0.00439216
0.0370758
0.00361211
0.000883015
0.966081
-0.00213425
0.965022
-0.00712789
0.922904
-0.0115114
0.877608
-0.0146827
0.834625
-0.0172103
0.794393
-0.0193013
0.756753
-0.0216005
0.720974
-0.0238997
0.686662
-0.0261593
0.654098
-0.0281799
0.622802
-0.0300279
0.592997
-0.0319411
0.564801
-0.0340281
0.537968
-0.0362759
0.512355
-0.0386604
0.487876
-0.040759
0.464286
-0.0427398
0.441891
-0.0448198
0.420468
-0.0466076
0.399729
-0.0479681
0.379899
-0.0492755
0.361099
-0.0504721
0.343048
-0.0514817
0.325797
-0.0522881
0.309325
-0.0528608
0.293525
-0.0531005
0.278323
-0.0529368
0.263807
-0.0525726
0.250049
-0.052329
0.237185
-0.0522469
0.224953
-0.0519845
0.213037
-0.0514049
0.201642
-0.0506629
0.190909
-0.0498544
0.180725
-0.0489648
0.171045
-0.0478882
0.16181
-0.0466607
0.153044
-0.0453492
0.144724
-0.0439272
0.136773
-0.0424116
0.129203
-0.0408051
0.122017
-0.0392769
0.115406
-0.0372859
0.10869
-0.0347186
0.101286
-0.0309447
0.0924369
-0.0248679
0.0795256
-0.0154268
0.0580711
-0.00276761
0.0244166
0.000844501
0.00921883
0.956862
0.00225208
0.971988
-0.00447373
0.92963
-0.010234
0.883368
-0.014772
0.839163
-0.0182867
0.797908
-0.020739
0.759205
-0.0229276
0.723163
-0.0252649
0.689
-0.0276308
0.656464
-0.0300777
0.625249
-0.0325847
0.595504
-0.0348316
0.567048
-0.0368375
0.539974
-0.0385948
0.514112
-0.0401736
0.489455
-0.0419457
0.466058
-0.0436132
0.443558
-0.0450981
0.421953
-0.0466942
0.401325
-0.0483237
0.381528
-0.0498083
0.362584
-0.051136
0.344376
-0.0523339
0.326995
-0.0533466
0.310337
-0.0542071
0.294386
-0.0549991
0.279115
-0.055815
0.264623
-0.056517
0.250751
-0.0567559
0.237423
-0.0564282
0.224625
-0.0559091
0.212518
-0.0554042
0.201137
-0.0547754
0.190281
-0.0539354
0.179885
-0.0529089
0.170018
-0.0518196
0.160721
-0.050648
0.151873
-0.0493302
0.143406
-0.0479043
0.135347
-0.0463615
0.12766
-0.0449302
0.120586
-0.0432555
0.113731
-0.0410044
0.106439
-0.0379987
0.09828
-0.0333795
0.0878176
-0.0254675
0.0716136
-0.0132695
0.0458732
-0.00169115
0.0128382
-0.000846649
0.0166147
0.940247
0.0049713
0.983632
-0.00106793
0.935669
-0.00718367
0.889484
-0.0118954
0.843875
-0.0164371
0.80245
-0.019713
0.762481
-0.0220875
0.725537
-0.0244156
0.691328
-0.0263935
0.658442
-0.0284491
0.627305
-0.0306779
0.597733
-0.0331173
0.569488
-0.0356949
0.542551
-0.0384955
0.516913
-0.0413152
0.492274
-0.0438455
0.468588
-0.0463475
0.44606
-0.0488634
0.424469
-0.0510963
0.403558
-0.0530715
0.383503
-0.0549309
0.364443
-0.056564
0.346009
-0.0579877
0.328419
-0.0591771
0.311527
-0.0601002
0.295309
-0.060668
0.279682
-0.0607665
0.264721
-0.0605263
0.25051
-0.0602919
0.237189
-0.0602205
0.224554
-0.0600078
0.212305
-0.0594555
0.200584
-0.0586996
0.189525
-0.0578668
0.179052
-0.056989
0.16914
-0.0559422
0.159674
-0.0547282
0.150659
-0.0534297
0.142108
-0.0520246
0.133942
-0.0506772
0.126313
-0.0492772
0.119186
-0.0473279
0.111782
-0.0449058
0.104017
-0.0413194
0.0946937
-0.0352252
0.0817234
-0.0248346
0.0612231
-0.0092959
0.0303344
-0.00117964
0.00472192
-0.00202629
0.0156485
0.924599
0.00459471
0.994685
0.00170579
0.938558
-0.00375535
0.894945
-0.00818772
0.848307
-0.0131159
0.807378
-0.0168497
0.766215
-0.0204056
0.729093
-0.0233657
0.694288
-0.0259887
0.661065
-0.0286715
0.629988
-0.0313236
0.600385
-0.0339419
0.572106
-0.0363831
0.544992
-0.0385919
0.519122
-0.0408449
0.494527
-0.0432863
0.47103
-0.045591
0.448365
-0.0477577
0.426635
-0.0500126
0.405813
-0.0522192
0.38571
-0.054218
0.366442
-0.0561114
0.347903
-0.0578637
0.330171
-0.0593555
0.313019
-0.0606266
0.29658
-0.061738
0.280794
-0.0628127
0.265796
-0.0638142
0.251512
-0.0643838
0.237759
-0.0642871
0.224457
-0.0638668
0.211885
-0.0634226
0.20014
-0.0628781
0.18898
-0.0621436
0.178318
-0.0611872
0.168184
-0.0601432
0.15863
-0.059044
0.149559
-0.0578118
0.140876
-0.0565639
0.132694
-0.0553727
0.125122
-0.0537311
0.117544
-0.0516749
0.109726
-0.0487771
0.101119
-0.0438544
0.089771
-0.0347662
0.0726352
-0.0201887
0.0466455
-0.00512856
0.0152743
-0.00047888
7.22472e-05
-0.00250517
0.00917536
0.915423
0.0030902
1.00077
0.00329089
0.938358
-0.0010211
0.899257
-0.00339823
0.850685
-0.00778954
0.811769
-0.0112992
0.769724
-0.0154172
0.733211
-0.0185064
0.697377
-0.0215789
0.664137
-0.0246703
0.633079
-0.0274472
0.603162
-0.0303817
0.575041
-0.033616
0.548227
-0.0370462
0.522552
-0.0403837
0.497865
-0.0435159
0.474162
-0.0466994
0.451549
-0.0498858
0.429822
-0.0528611
0.408788
-0.055659
0.388508
-0.0582447
0.369027
-0.0606314
0.350289
-0.0627072
0.332247
-0.0645701
0.314881
-0.066136
0.298146
-0.0673215
0.281979
-0.0679806
0.266455
-0.0681155
0.251647
-0.0680573
0.2377
-0.0681194
0.224519
-0.068087
0.211852
-0.0677014
0.199755
-0.0670494
0.188328
-0.0662758
0.177544
-0.0654956
0.167404
-0.0645992
0.157734
-0.0635269
0.148487
-0.0624137
0.139762
-0.0613634
0.131644
-0.0599963
0.123754
-0.0582137
0.115761
-0.0557895
0.107302
-0.0516906
0.0970205
-0.0441922
0.0822726
-0.0314957
0.0599388
-0.013063
0.0282128
-0.00258766
0.00479896
-7.13914e-06
-0.00250828
-0.00251231
0.0016182
0.913805
0.000997919
1.00139
0.00418784
0.935168
0.000607885
0.902837
-0.000463316
0.851756
-0.00413355
0.815439
-0.00709125
0.772682
-0.0116133
0.737733
-0.0150099
0.700774
-0.0188744
0.668002
-0.0225251
0.63673
-0.0259867
0.606624
-0.0290893
0.578143
-0.0319402
0.551078
-0.0348267
0.525439
-0.0379416
0.50098
-0.0411869
0.477407
-0.0442866
0.454648
-0.0473006
0.432836
-0.050363
0.411851
-0.0533697
0.391514
-0.0563056
0.371963
-0.0590986
0.353082
-0.0616581
0.334807
-0.0639826
0.317206
-0.0659892
0.300152
-0.0677456
0.283736
-0.069337
0.268047
-0.0708421
0.253152
-0.0719622
0.238821
-0.0723296
0.224886
-0.0721677
0.21169
-0.0718575
0.199444
-0.0714344
0.187905
-0.0708639
0.176974
-0.0700586
0.166598
-0.0691269
0.156802
-0.068216
0.147576
-0.0672746
0.138821
-0.0661581
0.130527
-0.0646988
0.122295
-0.0626969
0.11376
-0.0593453
0.10395
-0.052991
0.0906663
-0.0413545
0.070636
-0.0227921
0.0413764
-0.00640618
0.0118269
-0.000964564
-0.000642657
0.000193385
-0.00366623
-0.00231893
-0.00376382
0.917569
-0.00148338
0.99911
0.00450898
0.929175
0.00124365
0.906102
0.0020105
0.850989
-0.000564753
0.818015
-0.00230185
0.774419
-0.0062766
0.741708
-0.00928983
0.703787
-0.0131565
0.671868
-0.0164847
0.640058
-0.020024
0.610163
-0.0238662
0.581985
-0.0280373
0.555249
-0.032085
0.529486
-0.0358286
0.504723
-0.0396852
0.481264
-0.0437499
0.458713
-0.0477982
0.436884
-0.0517424
0.415795
-0.0555651
0.395337
-0.0591548
0.375553
-0.0625344
0.356462
-0.0656154
0.337888
-0.0684788
0.320069
-0.0710242
0.302698
-0.0731756
0.285887
-0.0747808
0.269652
-0.0756475
0.254018
-0.0760235
0.239197
-0.0763699
0.225233
-0.0766365
0.211957
-0.0765219
0.19933
-0.0760401
0.187423
-0.0753197
0.176253
-0.0745882
0.165867
-0.0738611
0.156075
-0.0730052
0.14672
-0.0720927
0.137908
-0.0709396
0.129374
-0.0692973
0.120653
-0.066512
0.110974
-0.0610844
0.0985223
-0.0506226
0.0802045
-0.0329437
0.0529571
-0.0126369
0.0210696
-0.00302838
0.00221835
-0.000218893
-0.00345214
0.000217805
-0.00410292
-0.00210112
-0.00646191
0.924031
-0.00413377
0.996782
0.00318127
0.92186
0.000829529
0.908454
0.00209047
0.849728
0.000243027
0.819862
-0.000515441
0.775178
-0.00388049
0.745073
-0.00639732
0.706304
-0.0105374
0.676009
-0.0134763
0.642997
-0.0172723
0.613959
-0.0209149
0.585628
-0.0241535
0.558487
-0.027846
0.533179
-0.0318998
0.508777
-0.0358352
0.485199
-0.0397495
0.462627
-0.0436909
0.440825
-0.0477248
0.419829
-0.0518428
0.399455
-0.0559253
0.379636
-0.0598957
0.360432
-0.0636878
0.34168
-0.067173
0.323555
-0.0702857
0.30581
-0.0730399
0.288641
-0.0755116
0.272123
-0.0778078
0.256315
-0.0797385
0.241127
-0.0808482
0.226342
-0.0811315
0.21224
-0.0810343
0.199233
-0.0807041
0.187093
-0.0802219
0.175771
-0.0795182
0.165163
-0.0786498
0.155206
-0.077833
0.145904
-0.0768978
0.136973
-0.0755209
0.127998
-0.0731565
0.118288
-0.0685498
0.106368
-0.0594483
0.0894208
-0.0430041
0.0637602
-0.020176
0.030129
-0.00557383
0.00646746
-0.000969779
-0.0023857
0.000259308
-0.00468123
0.000272129
-0.00411574
-0.00182899
-0.00669329
0.930724
-0.00456812
0.994657
0.000882795
0.916409
-0.000421282
0.909758
0.0023153
0.846991
0.00113161
0.821046
0.00208489
0.774224
0.000354844
0.746803
-0.00198407
0.708643
-0.00545089
0.679475
-0.00794182
0.645488
-0.011539
0.617556
-0.0154917
0.589581
-0.0199228
0.562918
-0.0240615
0.537317
-0.0283151
0.513031
-0.0329847
0.489869
-0.0377871
0.46743
-0.0427258
0.445764
-0.047677
0.42478
-0.0525898
0.404368
-0.0574166
0.384462
-0.0620684
0.365084
-0.0665641
0.346176
-0.0707578
0.327748
-0.0746472
0.3097
-0.0781127
0.292107
-0.081021
0.275032
-0.0830867
0.25838
-0.0842867
0.242327
-0.0851971
0.227253
-0.0859191
0.212962
-0.0861814
0.199495
-0.0859162
0.186828
-0.0851853
0.17504
-0.0842749
0.164253
-0.0834896
0.154421
-0.082584
0.144998
-0.0813356
0.135725
-0.0793003
0.125962
-0.0755025
0.114491
-0.0677753
0.0986403
-0.0524385
0.074084
-0.0284234
0.0397451
-0.00963596
0.0113415
-0.00276234
-0.00040616
-0.000749313
-0.00439873
-0.000120407
-0.00531014
7.1086e-05
-0.00430724
-0.00175791
-0.00441948
0.935144
-0.0015589
0.991797
-0.000475931
0.915326
-0.00163582
0.910918
0.00134069
0.844015
7.1114e-05
0.822315
0.000469802
0.773826
6.27128e-05
0.74721
-0.000401022
0.709107
-0.00327832
0.682353
-0.00587709
0.648087
-0.00924818
0.620927
-0.0118164
0.592149
-0.0151384
0.56624
-0.0192414
0.54142
-0.0235866
0.517376
-0.027924
0.494206
-0.0324664
0.471972
-0.0372129
0.45051
-0.0422246
0.429792
-0.0474734
0.409617
-0.0528104
0.389799
-0.0581873
0.370461
-0.063445
0.351433
-0.0684066
0.33271
-0.0730322
0.314325
-0.0772461
0.296321
-0.0810129
0.278799
-0.0844523
0.26182
-0.0876132
0.245488
-0.0898421
0.229482
-0.0909314
0.214052
-0.0912157
0.199779
-0.0909682
0.18658
-0.0904214
0.174493
-0.0896258
0.163457
-0.088489
0.153284
-0.0870401
0.143549
-0.0851688
0.133853
-0.0819827
0.122776
-0.0753264
0.107834
-0.0610406
0.0843546
-0.0371898
0.0502331
-0.0152257
0.0177811
-0.00593648
0.00205232
-0.00277628
-0.00356636
-0.0016172
-0.00555781
-0.000996329
-0.00593101
-0.000407106
-0.00489646
-0.00216501
-0.00156642
0.93671
0.00190376
0.988326
0.00043114
0.916799
0.000168127
0.911181
0.00297347
0.841209
0.0011777
0.824111
0.00186369
0.77314
0.00144656
0.747627
0.00174482
0.708808
0.000537116
0.68356
-0.00148827
0.650112
-0.00461708
0.624056
-0.007675
0.595207
-0.0114791
0.570044
-0.0151555
0.545097
-0.01941
0.52163
-0.0243284
0.499125
-0.029553
0.477197
-0.0351285
0.456086
-0.0409227
0.435586
-0.0468234
0.415517
-0.0528624
0.395838
-0.0589249
0.376523
-0.0649522
0.35746
-0.0708272
0.338585
-0.0764571
0.319955
-0.0816382
0.301502
-0.0862364
0.283397
-0.0900212
0.265605
-0.0926033
0.24807
-0.0944729
0.231351
-0.0960222
0.215601
-0.096885
0.200642
-0.0969344
0.18663
-0.096189
0.173748
-0.0947067
0.161975
-0.0930834
0.151661
-0.0909207
0.141386
-0.0877469
0.13068
-0.0816017
0.116631
-0.0683672
0.0946001
-0.0458021
0.0617894
-0.0211558
0.0255869
-0.00841786
0.00504312
-0.00380797
-0.00255758
-0.00210687
-0.00526746
-0.00135185
-0.00631284
-0.000945099
-0.00633776
-0.000499107
-0.00534245
-0.00266412
0.0013629
0.935347
0.004885
0.984804
0.00130187
0.920382
0.00117697
0.911306
0.00217222
0.840214
0.000307334
0.825976
0.000943516
0.772503
0.000507755
0.748063
0.00121558
0.7081
0.000592283
0.684184
-0.000930055
0.651634
-0.0026495
0.625775
-0.00452318
0.597081
-0.00780287
0.573324
-0.0112694
0.548563
-0.014957
0.525318
-0.0190993
0.503267
-0.0238298
0.481927
-0.0289833
0.46124
-0.0345622
0.441165
-0.0406826
0.421638
-0.0471613
0.402317
-0.0538866
0.383249
-0.0606796
0.364253
-0.0673771
0.345282
-0.0738431
0.326421
-0.0799559
0.307615
-0.08561
0.289051
-0.0906345
0.270629
-0.0953463
0.252782
-0.0993108
0.235316
-0.101946
0.218236
-0.103103
0.201799
-0.103104
0.186631
-0.102353
0.172997
-0.100819
0.16044
-0.0983985
0.149241
-0.0945859
0.137574
-0.0877679
0.123862
-0.0750369
0.1039
-0.0545451
0.0741082
-0.0267976
0.0340418
-0.00865964
0.00744898
-0.00127501
-0.0023415
0.00171714
-0.00554974
0.00254258
-0.00609289
0.00215185
-0.00592212
0.00113914
-0.00532504
0.000238501
-0.00444182
-0.00242562
0.00200669
0.933341
0.0047468
0.982064
0.00275313
0.922376
0.00390728
0.910152
0.00412689
0.839995
0.00228157
0.827821
0.00241814
0.772367
0.00114679
0.749334
0.00204119
0.707206
0.0024307
0.683794
0.00200607
0.652059
-0.000300391
0.628082
-0.00214964
0.59893
-0.00455305
0.575727
-0.00738813
0.551398
-0.0113419
0.529272
-0.0157845
0.507709
-0.0206917
0.486834
-0.0262652
0.466813
-0.0323909
0.44729
-0.0388675
0.428115
-0.0458293
0.409279
-0.0530836
0.390503
-0.0606084
0.371778
-0.0682623
0.352936
-0.0758853
0.334044
-0.0832362
0.314966
-0.0900106
0.295825
-0.0960479
0.276666
-0.100731
0.257465
-0.104159
0.238744
-0.107017
0.221094
-0.109119
0.203901
-0.110144
0.187656
-0.109442
0.172295
-0.107048
0.158046
-0.102686
0.14488
-0.0951196
0.130007
-0.0823333
0.111075
-0.0616336
0.0832
-0.0317035
0.0441782
-0.00593175
0.00827011
0.00600734
-0.0044901
0.0107631
-0.00709726
0.0118966
-0.00668326
0.0109061
-0.00510238
0.00839256
-0.00340857
0.00509358
-0.00202606
0.00185789
-0.00120613
-0.000567728
0.00240602
0.930935
0.00416496
0.980305
0.0011723
0.925368
0.00357188
0.907752
0.00305483
0.840512
0.00245963
0.828417
0.00262724
0.772199
0.000986991
0.750975
0.000782916
0.70741
0.000770301
0.683807
0.00171154
0.651118
0.00141623
0.628377
-0.000361461
0.600707
-0.00225022
0.577616
-0.004276
0.553424
-0.00718311
0.532179
-0.0105237
0.51105
-0.0147846
0.491095
-0.0195583
0.471587
-0.0250579
0.45279
-0.0314234
0.43448
-0.0384685
0.416324
-0.0461562
0.398191
-0.0542652
0.379887
-0.0626224
0.361293
-0.0710403
0.342462
-0.0793566
0.323282
-0.0872545
0.303723
-0.0946264
0.284038
-0.101495
0.264334
-0.107847
0.245096
-0.11256
0.225806
-0.115675
0.207017
-0.116894
0.188876
-0.115847
0.171248
-0.112958
0.155156
-0.106298
0.13822
-0.0936654
0.117375
-0.0709312
0.0883411
-0.037061
0.0493298
-0.0046924
0.0118096
0.0120431
-0.00846543
0.0180735
-0.0105205
0.0191555
-0.0081792
0.0177372
-0.00526497
0.0150192
-0.00238441
0.0113414
0.000269187
0.00704011
0.00227528
0.00276969
0.00306429
0.00220197
0.000640852
0.930294
0.00247648
0.97847
0.0020383
0.925807
0.00465279
0.905138
0.00324912
0.841915
0.00335948
0.828306
0.00306216
0.772497
0.00226084
0.751776
0.00159752
0.708073
0.00158862
0.683816
0.00221076
0.650496
0.00142217
0.629166
0.00127934
0.60085
3.73631e-05
0.578858
-0.00208085
0.555542
-0.00481645
0.534914
-0.00806321
0.514297
-0.0120319
0.495064
-0.0169857
0.476541
-0.0226512
0.458456
-0.0290018
0.440831
-0.0361287
0.423451
-0.0439802
0.406042
-0.0525552
0.388462
-0.0617332
0.370471
-0.0712739
0.352003
-0.0808407
0.332849
-0.090273
0.313155
-0.0991287
0.292894
-0.106836
0.272041
-0.112783
0.251044
-0.117644
0.230666
-0.121102
0.210474
-0.123545
0.191319
-0.123844
0.171547
-0.118969
0.150281
-0.107079
0.12633
-0.0833163
0.0936122
-0.0449607
0.0499856
-0.00928986
0.0136589
0.0107305
-0.00821078
0.0174304
-0.0151653
0.0194419
-0.0125319
0.0190856
-0.00782294
0.0170151
-0.00319444
0.0139791
0.000651585
0.010258
0.00399034
0.00627154
0.0062617
0.00237066
0.00696517
0.00457262
0.000290466
0.930003
0.00172799
0.977032
-0.000476013
0.928011
0.00295073
0.901711
0.00149067
0.843375
0.00256332
0.827234
0.0025271
0.772533
0.00139981
0.752903
6.88111e-05
0.709404
0.000138459
0.683746
0.00107381
0.64956
0.00167056
0.628569
0.000706919
0.601814
0.000490218
0.579075
-0.000103489
0.556136
-0.00165673
0.536468
-0.00383908
0.516479
-0.00681543
0.49804
-0.0105088
0.480234
-0.0153006
0.463247
-0.0210927
0.446623
-0.027876
0.430234
-0.0357303
0.413897
-0.0445669
0.397299
-0.054148
0.380052
-0.0641957
0.362051
-0.0745729
0.343226
-0.0850877
0.32367
-0.0953938
0.3032
-0.105271
0.281918
-0.114375
0.260148
-0.122365
0.238656
-0.128294
0.216403
-0.131507
0.194532
-0.129354
0.169394
-0.119565
0.140492
-0.0952342
0.101998
-0.0581595
0.0565375
-0.0264435
0.0182696
-0.0116058
-0.0011788
-0.00809605
-0.0117205
-0.00622046
-0.0170409
-0.00322514
-0.0155273
-3.36e-05
-0.0110145
0.00153454
-0.00476258
0.00157088
0.00061524
0.00128992
0.0042713
0.000568555
0.00698306
-9.37144e-05
0.00762744
0.00447891
0.000355096
0.929648
-0.000196003
0.977583
-0.000866522
0.928681
0.00203201
0.898812
-0.000263443
0.845671
0.00251771
0.824452
0.00126265
0.773788
0.00194089
0.752225
0.00105979
0.710286
-3.90285e-05
0.684845
-2.18714e-05
0.649543
0.001399
0.627148
0.00183595
0.601377
0.000836714
0.580074
0.00012794
0.556845
-0.000769721
0.537365
-0.00257241
0.518282
-0.00530544
0.500773
-0.00899841
0.483927
-0.0134156
0.467665
-0.0188016
0.452009
-0.0251428
0.436575
-0.0327444
0.421498
-0.0417366
0.406291
-0.0518246
0.39014
-0.0627475
0.372974
-0.0743656
0.354844
-0.0865678
0.335872
-0.098768
0.3154
-0.110073
0.293223
-0.119322
0.269397
-0.128098
0.247433
-0.134071
0.222376