/*--------------------------------*- C++ -*----------------------------------*\
| =========                 |                                                 |
| \\      /  F ield         | OpenFOAM: The Open Source CFD Toolbox           |
|  \\    /   O peration     | Version:  v1912                                 |
|   \\  /    A nd           | Website:  www.openfoam.com                      |
|    \\/     M anipulation  |                                                 |
\*---------------------------------------------------------------------------*/
FoamFile
{
    version     2.0;
    format      ascii;
    class       volVectorField;
    location    "0.08";
    object      U;
}
// * * * * * * * * * * * * * * * * * * * * * * * * * * * * * * * * * * * * * //

dimensions      [0 1 -1 0 0 0 0];


internalField   nonuniform List<vector> 
6600
(
(39.8394 -0.0452299 0)
(40.0889 -0.0534303 1.17127e-20)
(40.1443 0.0350882 8.21165e-19)
(40.1941 0.121599 0)
(40.2293 0.228051 9.97096e-19)
(40.2736 0.346597 3.3556e-20)
(40.3225 0.472534 -3.72295e-20)
(40.3688 0.614167 -4.15217e-20)
(40.4159 0.753139 8.57812e-19)
(40.4523 0.911041 -1.15356e-19)
(40.474 1.07747 0)
(40.4917 1.25681 -1.10132e-18)
(40.511 1.44635 0)
(40.5368 1.6501 -1.21843e-18)
(40.5349 1.8694 -1.74185e-18)
(40.526 2.10547 -9.48119e-19)
(40.5014 2.35141 0)
(40.4727 2.62436 0)
(40.4273 2.92892 1.6469e-18)
(40.3681 3.27151 -1.50892e-18)
(40.2812 3.63033 -2.28638e-19)
(40.1823 3.99999 -8.7315e-19)
(40.087 4.39055 -1.65001e-18)
(39.9832 4.80016 3.76183e-19)
(39.8586 5.23977 1.40335e-18)
(39.7273 5.70842 0)
(39.5827 6.20984 3.53892e-18)
(39.4154 6.74435 0)
(39.1644 7.28451 -1.8161e-18)
(38.9793 7.85836 -1.19613e-18)
(38.8413 8.50506 -3.50923e-19)
(38.6451 9.23392 -1.51016e-18)
(38.3851 9.98912 -6.4505e-19)
(38.1674 10.7883 1.29774e-18)
(37.9589 11.6614 3.67606e-19)
(37.7175 12.5985 1.52877e-18)
(37.4889 13.6096 3.05748e-18)
(37.2802 14.6771 2.92219e-18)
(37.0807 15.8307 -2.14225e-18)
(36.895 17.0746 2.25809e-18)
(36.7312 18.3868 1.1708e-18)
(36.5918 19.7932 0)
(36.4983 21.2896 -1.08231e-19)
(36.4508 22.9022 3.5215e-19)
(36.441 24.5821 0)
(36.518 26.4385 -1.13263e-18)
(36.5722 28.2275 -2.85813e-18)
(36.974 30.5062 0)
(35.4134 31.4531 0)
(25.7115 24.615 -2.05893e-18)
(39.7374 -0.0446296 6.90324e-19)
(40.1617 -0.0762282 -7.06294e-19)
(40.209 0.0375905 0)
(40.2643 0.160175 -1.31905e-20)
(40.3024 0.279121 9.10159e-19)
(40.3467 0.418554 3.17121e-20)
(40.4034 0.561731 -1.84156e-22)
(40.4547 0.705962 -3.89211e-20)
(40.505 0.872782 0)
(40.5593 1.04027 -1.49237e-18)
(40.6018 1.2298 -5.39015e-20)
(40.6307 1.43881 9.27588e-19)
(40.6557 1.66025 9.78669e-19)
(40.6705 1.895 7.22504e-19)
(40.6858 2.13467 -2.52589e-21)
(40.6828 2.38996 1.01274e-19)
(40.6653 2.65582 -8.87635e-19)
(40.6449 2.92393 0)
(40.5987 3.19776 0)
(40.5347 3.47791 1.55033e-18)
(40.4651 3.80715 2.16217e-19)
(40.3999 4.15871 -1.15274e-18)
(40.331 4.55026 -1.05585e-18)
(40.2463 4.97268 -1.22055e-18)
(40.1401 5.42705 -1.01905e-18)
(40.012 5.91419 -4.33612e-19)
(39.8717 6.43669 -5.83618e-19)
(39.7171 6.99316 -5.76592e-19)
(39.633 7.65083 1.79614e-18)
(39.5019 8.33906 3.06516e-19)
(39.301 9.01252 -2.31508e-18)
(39.0968 9.71586 2.1339e-18)
(38.9562 10.4851 1.45702e-18)
(38.8033 11.3143 -1.91192e-18)
(38.6207 12.1853 3.90493e-19)
(38.4437 13.1136 -1.56357e-18)
(38.2933 14.1023 1.07908e-18)
(38.1715 15.1757 -1.06742e-18)
(38.0677 16.3092 -5.56735e-19)
(38.0022 17.5074 -6.1062e-19)
(37.9627 18.7924 0)
(37.9552 20.1568 0)
(37.9811 21.5882 3.22531e-19)
(38.0582 23.1204 -4.36534e-19)
(38.2243 24.7195 -1.97993e-18)
(38.4792 26.4758 1.16953e-18)
(38.7296 28.1987 4.5994e-18)
(39.2217 30.1892 0)
(37.6379 30.7122 -5.20411e-18)
(26.7011 23.4378 2.29135e-18)
(39.6573 -0.0376075 -5.08813e-20)
(40.2792 -0.0849607 7.19723e-19)
(40.3123 0.0649337 7.11332e-19)
(40.3602 0.188576 -3.48984e-22)
(40.4062 0.313809 -1.14663e-19)
(40.459 0.455306 2.98146e-20)
(40.5161 0.60048 0)
(40.5833 0.767096 0)
(40.6393 0.936734 0)
(40.6864 1.118 7.84274e-19)
(40.721 1.31 -4.90437e-20)
(40.7511 1.50897 -9.33786e-19)
(40.7802 1.72897 -5.24678e-19)
(40.812 1.96104 1.0582e-18)
(40.8342 2.20749 5.99811e-19)
(40.8516 2.46402 -9.30973e-20)
(40.8494 2.74631 1.77699e-18)
(40.8424 3.06491 -8.90997e-19)
(40.8267 3.42827 -1.02269e-18)
(40.803 3.80832 0)
(40.7405 4.18877 -6.7557e-19)
(40.6605 4.58789 9.2264e-19)
(40.6043 5.00294 1.06849e-18)
(40.5352 5.44915 1.23593e-18)
(40.4642 5.92508 1.09537e-18)
(40.3735 6.43556 -1.12544e-19)
(40.2836 6.97168 -2.11765e-19)
(40.1695 7.5308 -6.16557e-19)
(39.9759 8.07845 -2.73581e-19)
(39.8723 8.69017 1.07946e-18)
(39.8243 9.38168 3.42249e-19)
(39.7065 10.1361 0)
(39.5342 10.9126 -1.60808e-18)
(39.4264 11.7312 4.11485e-19)
(39.3402 12.6141 8.75768e-19)
(39.236 13.5432 1.0703e-18)
(39.1551 14.5367 -7.53392e-19)
(39.1115 15.5718 -3.88934e-19)
(39.0985 16.6834 4.43911e-19)
(39.1183 17.8621 0)
(39.1847 19.0905 5.9585e-19)
(39.301 20.391 0)
(39.4943 21.7549 0)
(39.7671 23.2064 2.0855e-18)
(40.1158 24.701 1.27169e-18)
(40.5637 26.328 -2.66548e-18)
(41.0551 27.9678 -2.79247e-18)
(41.6288 29.7014 0)
(39.8366 29.7602 -3.21951e-18)
(27.3375 21.9198 3.50461e-18)
(39.5689 -0.00346425 -6.44089e-19)
(40.4177 -0.0676954 4.82052e-21)
(40.4289 0.113213 -7.30073e-19)
(40.4699 0.229877 -6.72695e-19)
(40.5225 0.378904 -8.16773e-19)
(40.5606 0.542784 -3.87366e-19)
(40.6237 0.712081 -2.94478e-20)
(40.6961 0.874566 0)
(40.7561 1.06185 5.22704e-19)
(40.81 1.26083 6.16507e-19)
(40.8678 1.47764 -4.34908e-20)
(40.9124 1.70531 -4.90405e-20)
(40.9437 1.94106 -4.16268e-19)
(40.9706 2.18853 -1.43258e-19)
(41.0026 2.44724 -2.52177e-20)
(41.0269 2.72248 -8.02795e-20)
(41.0332 3.00862 -4.13403e-20)
(41.0307 3.29468 1.00363e-18)
(41.008 3.59237 1.33974e-18)
(40.9787 3.93371 0)
(40.9564 4.30388 1.31656e-19)
(40.9255 4.69421 0)
(40.8865 5.11722 0)
(40.8427 5.56573 -2.35603e-19)
(40.7774 6.05234 7.20566e-19)
(40.6991 6.57151 8.3256e-19)
(40.6125 7.12589 -1.68833e-19)
(40.5315 7.7198 8.7529e-19)
(40.5132 8.4015 0)
(40.4391 9.10688 0)
(40.3161 9.80508 3.82207e-19)
(40.2189 10.5259 0)
(40.1862 11.3099 4.28733e-19)
(40.1417 12.1468 5.03043e-19)
(40.0906 13.0129 -9.33983e-19)
(40.0586 13.9238 -7.51402e-19)
(40.0654 14.8832 9.09157e-20)
(40.1148 15.9196 -2.64658e-20)
(40.2062 16.9932 3.5447e-19)
(40.3533 18.1128 4.12556e-19)
(40.5457 19.2937 -1.89199e-18)
(40.795 20.5269 0)
(41.0988 21.7993 0)
(41.4711 23.131 -1.34638e-18)
(41.9594 24.4984 -2.57722e-18)
(42.5425 25.9805 -7.15873e-19)
(43.1594 27.5278 -4.566e-18)
(43.6266 28.8692 5.04296e-18)
(41.434 28.4565 7.1414e-18)
(27.466 20.0753 0)
(39.5277 0.0305232 -2.0486e-21)
(40.5301 -0.0380873 5.13069e-19)
(40.5589 0.181743 5.57255e-19)
(40.6342 0.278584 6.97166e-19)
(40.6598 0.428452 0)
(40.7249 0.600597 6.06103e-20)
(40.7799 0.771909 0)
(40.8452 0.95874 -2.73672e-20)
(40.9073 1.14467 -9.31164e-19)
(40.9733 1.3413 -6.13703e-19)
(41.0223 1.54054 3.69715e-20)
(41.0684 1.74947 4.11727e-20)
(41.1091 1.98463 -4.57989e-20)
(41.1524 2.23037 -4.55105e-19)
(41.1948 2.49405 -9.73623e-19)
(41.2308 2.77453 6.47969e-20)
(41.2559 3.09871 -1.16722e-18)
(41.2678 3.45787 8.43274e-20)
(41.2958 3.85681 -4.26223e-19)
(41.2936 4.23729 -2.14731e-19)
(41.2671 4.65483 6.76601e-19)
(41.2294 5.09413 0)
(41.2122 5.54633 0)
(41.1945 6.02451 -2.80001e-19)
(41.1745 6.52572 -4.63768e-19)
(41.1372 7.06018 4.42165e-19)
(41.1048 7.62137 -1.19759e-19)
(41.0441 8.1889 0)
(40.9225 8.74941 1.3065e-19)
(40.9007 9.37189 -1.45529e-19)
(40.9439 10.0784 -3.88469e-19)
(40.9192 10.8477 -2.20161e-19)
(40.8527 11.6258 1.23022e-19)
(40.8661 12.4396 -2.94999e-20)
(40.9117 13.311 3.28261e-20)
(40.9575 14.2141 0)
(41.0377 15.1645 7.79997e-20)
(41.171 16.1339 1.23238e-18)
(41.3498 17.168 -6.28819e-19)
(41.5748 18.2442 -8.42659e-19)
(41.8622 19.3458 1.31287e-18)
(42.2116 20.4879 0)
(42.6525 21.6593 0)
(43.1919 22.8798 -2.45308e-18)
(43.8174 24.1084 5.37098e-18)
(44.5312 25.4288 1.44576e-18)
(45.2777 26.8332 2.78053e-18)
(45.6475 27.8946 -6.05257e-18)
(42.8464 26.9652 5.1141e-19)
(27.0841 17.9506 -9.62196e-18)
(39.514 0.00561581 4.5401e-19)
(40.6649 -0.00994104 -8.43645e-20)
(40.6879 0.27073 -5.68371e-19)
(40.7606 0.344194 2.40745e-19)
(40.8314 0.526885 0)
(40.8837 0.680859 3.52267e-19)
(40.9503 0.854178 -1.05899e-20)
(41.0138 1.04688 -3.12761e-19)
(41.084 1.25496 4.38298e-19)
(41.139 1.46814 0)
(41.2005 1.70244 2.8953e-20)
(41.2664 1.94045 1.81643e-19)
(41.3328 2.19572 -2.67817e-19)
(41.3751 2.45737 3.91296e-20)
(41.4216 2.74398 4.48358e-19)
(41.4673 3.02948 -4.81067e-20)
(41.4999 3.32526 3.98083e-19)
(41.5216 3.63248 -5.99891e-20)
(41.5159 3.95527 6.68438e-20)
(41.5297 4.33433 1.4456e-19)
(41.5583 4.71777 1.95489e-19)
(41.5627 5.13988 7.48237e-22)
(41.5619 5.59586 9.85617e-20)
(41.5617 6.07903 3.64856e-19)
(41.5585 6.58825 0)
(41.5386 7.12687 -3.3856e-19)
(41.5136 7.70134 5.62995e-20)
(41.5192 8.33085 -1.05783e-20)
(41.5748 9.03243 -9.21729e-20)
(41.5736 9.74682 4.79922e-20)
(41.5355 10.4432 1.00106e-19)
(41.543 11.1492 1.11438e-19)
(41.623 11.9221 0)
(41.6946 12.7356 0)
(41.7752 13.5661 0)
(41.8872 14.4288 0)
(42.0511 15.3245 1.15672e-18)
(42.2665 16.2829 -2.18815e-18)
(42.5376 17.2509 0)
(42.8742 18.2449 4.23949e-20)
(43.263 19.2703 -2.73331e-19)
(43.7202 20.3184 -3.56763e-18)
(44.2372 21.3766 1.96552e-18)
(44.8179 22.45 0)
(45.5139 23.5253 1.99576e-18)
(46.2881 24.6828 -7.23503e-18)
(47.0347 25.9558 5.16313e-18)
(47.0835 26.5749 3.86424e-18)
(43.415 25.1207 1.4326e-17)
(25.9954 15.5346 -1.07213e-17)
(39.4774 0.0198484 -4.47956e-19)
(40.8687 0.0143312 -7.70273e-19)
(40.8622 0.31063 6.32157e-21)
(40.9479 0.395676 -2.42045e-19)
(40.9872 0.595608 1.82754e-19)
(41.059 0.748405 -7.2212e-21)
(41.1317 0.919647 2.11996e-19)
(41.2172 1.114 3.14014e-19)
(41.2845 1.30318 2.30726e-19)
(41.3653 1.51028 -9.6641e-21)
(41.4325 1.73038 -1.20547e-19)
(41.489 1.96839 -9.01267e-20)
(41.5479 2.21274 2.34054e-19)
(41.6191 2.48121 0)
(41.6787 2.76138 0)
(41.7365 3.08256 1.39027e-20)
(41.7986 3.4353 2.20796e-19)
(41.8495 3.81919 0)
(41.9227 4.22979 1.64715e-20)
(41.9511 4.63315 -2.39144e-19)
(41.956 5.0816 -2.21192e-19)
(41.9683 5.53707 -9.42352e-21)
(41.9958 6.01265 0)
(42.0342 6.51392 -1.37593e-19)
(42.0731 7.04186 -7.20543e-21)
(42.1029 7.59299 8.03785e-21)
(42.1345 8.16422 0)
(42.1217 8.72615 0)
(42.0775 9.28991 -1.4296e-19)
(42.1415 9.90507 2.09139e-19)
(42.281 10.6073 -2.41877e-19)
(42.3567 11.3671 1.56489e-19)
(42.3964 12.1157 3.0281e-19)
(42.5246 12.8889 -7.66493e-19)
(42.6907 13.708 1.44563e-18)
(42.8747 14.5464 5.62416e-19)
(43.1005 15.4142 -8.1536e-19)
(43.3862 16.2746 1.13275e-18)
(43.7211 17.1829 -2.01601e-18)
(44.1045 18.1066 5.66515e-20)
(44.553 19.0328 -3.28622e-19)
(45.0605 19.969 1.83978e-18)
(45.6552 20.9018 2.83119e-18)
(46.3542 21.8504 -3.14509e-18)
(47.1311 22.783 2.00247e-18)
(47.977 23.8128 0)
(48.6565 24.7934 3.18275e-18)
(48.4335 25.175 4.83247e-18)
(43.6402 23.1319 -9.85317e-18)
(24.1578 12.8921 -3.03601e-18)
(39.4841 0.062948 2.70401e-19)
(41.0576 0.0156766 3.37677e-19)
(41.0737 0.312773 2.51603e-21)
(41.1329 0.406755 -1.1707e-19)
(41.1804 0.645789 -3.08517e-19)
(41.2403 0.824998 1.18124e-19)
(41.338 1.01616 -3.18075e-19)
(41.4113 1.20576 5.11559e-20)
(41.4901 1.4182 -2.22893e-19)
(41.5699 1.63528 -4.60316e-20)
(41.6554 1.87277 1.64872e-19)
(41.7389 2.13348 -1.35059e-19)
(41.8214 2.40575 -9.79484e-21)
(41.8943 2.68778 9.34171e-22)
(41.9642 2.99161 1.82423e-20)
(42.0475 3.29725 -2.82878e-20)
(42.1188 3.6091 -6.78025e-20)
(42.1712 3.9361 0)
(42.1965 4.28424 0)
(42.2546 4.67308 0)
(42.3326 5.06235 1.01633e-20)
(42.3731 5.50587 -2.10977e-20)
(42.4157 5.98073 1.39576e-19)
(42.4704 6.48234 2.58648e-20)
(42.5308 7.00595 0)
(42.5776 7.55799 0)
(42.6157 8.14453 -2.39672e-19)
(42.7154 8.7875 1.20868e-19)
(42.8502 9.49214 -1.07001e-19)
(42.9358 10.2055 1.27428e-19)
(42.9795 10.8747 4.81357e-20)
(43.0773 11.5395 5.60543e-19)
(43.2623 12.2726 -2.57938e-19)
(43.4399 13.0322 1.03096e-18)
(43.6339 13.7923 -6.79623e-19)
(43.8637 14.567 -3.267e-19)
(44.1512 15.358 1.73701e-19)
(44.4904 16.1974 8.75867e-19)
(44.8872 17.0195 8.7555e-19)
(45.3481 17.8459 1.4073e-18)
(45.8563 18.6765 -3.07727e-19)
(46.4317 19.5042 2.61104e-18)
(47.0644 20.3208 -2.90426e-18)
(47.7426 21.1174 0)
(48.5197 21.8997 0)
(49.3771 22.8157 0)
(49.8256 23.4715 0)
(48.9961 23.5222 0)
(42.7042 20.8114 -5.66232e-18)
(21.3915 10.0866 9.29779e-18)
(39.5138 0.101711 -2.70945e-19)
(41.2077 -0.00421368 0)
(41.269 0.354312 0)
(41.4005 0.403891 1.18578e-19)
(41.4135 0.668083 1.16948e-19)
(41.478 0.856864 -1.15712e-19)
(41.5495 1.04387 1.10703e-19)
(41.6431 1.24996 -5.1319e-20)
(41.7403 1.44949 -2.23542e-20)
(41.8426 1.66362 4.11407e-20)
(41.94 1.8939 -3.48941e-20)
(42.0229 2.12667 -8.66181e-20)
(42.105 2.38422 -4.96777e-20)
(42.2007 2.6688 0)
(42.2985 2.97382 -1.42132e-20)
(42.3854 3.31505 3.94412e-20)
(42.4932 3.6924 2.46123e-21)
(42.6096 4.09458 2.2421e-19)
(42.7216 4.51359 -3.00009e-19)
(42.7855 4.94666 0)
(42.8428 5.42144 0)
(42.9223 5.88313 -2.7154e-19)
(43.0024 6.36755 1.73873e-19)
(43.0879 6.88053 4.20402e-19)
(43.1864 7.41485 1.06832e-19)
(43.2782 7.97198 -4.45571e-19)
(43.3733 8.54102 6.49478e-19)
(43.4139 9.09277 -7.29701e-19)
(43.4401 9.63741 3.85523e-19)
(43.577 10.2245 -3.34214e-19)
(43.8074 10.9027 1.98797e-19)
(43.9782 11.6282 -6.09087e-19)
(44.1066 12.3186 4.69409e-19)
(44.3254 13.0194 -7.53429e-19)
(44.5808 13.7512 0)
(44.8652 14.4917 -7.57795e-19)
(45.1913 15.2455 -7.62694e-19)
(45.5743 15.9655 1.83238e-19)
(46.0023 16.7174 1.71596e-18)
(46.4691 17.4604 -1.70085e-18)
(46.9942 18.1879 -2.79396e-19)
(47.5674 18.9032 -2.98321e-18)
(48.2103 19.5873 7.02175e-18)
(48.9593 20.2637 4.557e-19)
(49.7801 20.9288 5.3961e-19)
(50.6087 21.7063 -2.78038e-18)
(50.7893 22.0158 0)
(49.2954 21.7669 5.06307e-18)
(41.2537 18.4125 -2.69591e-18)
(17.6866 7.20344 0)
(39.5646 0.130495 3.44726e-22)
(41.3939 0.00464977 -1.37791e-22)
(41.4788 0.434541 2.23914e-21)
(41.569 0.411833 0)
(41.635 0.684427 1.51516e-22)
(41.7064 0.839382 3.55831e-20)
(41.7779 1.05249 0)
(41.8652 1.26336 -7.24464e-20)
(41.9692 1.48925 2.65411e-20)
(42.0728 1.73819 -4.58949e-21)
(42.1923 1.9779 -1.63707e-19)
(42.3188 2.251 -2.61e-20)
(42.4294 2.53697 7.16488e-20)
(42.5343 2.83337 0)
(42.6402 3.14255 0)
(42.7694 3.45717 0)
(42.8808 3.77195 2.82305e-19)
(42.9617 4.1154 -2.26534e-19)
(43.0455 4.49138 5.61782e-19)
(43.1549 4.8723 -6.08419e-20)
(43.2787 5.27987 1.42793e-19)
(43.3684 5.74676 1.89694e-19)
(43.4681 6.2303 -8.68214e-19)
(43.58 6.7309 -7.4536e-19)
(43.6957 7.25817 0)
(43.806 7.80584 4.34849e-19)
(43.9058 8.38635 -1.11583e-18)
(44.0847 9.02454 6.76442e-19)
(44.299 9.716 -3.82417e-19)
(44.4659 10.4074 2.2479e-19)
(44.5753 11.0294 -3.10464e-19)
(44.7353 11.6348 1.16753e-18)
(44.9979 12.3041 -1.28244e-18)
(45.2531 12.989 1.78588e-18)
(45.5249 13.659 7.45688e-19)
(45.8271 14.3227 -1.7602e-18)
(46.1842 14.9846 2.20763e-18)
(46.5865 15.6846 -1.42999e-18)
(47.0367 16.3452 3.08246e-20)
(47.5441 16.9924 0)
(48.0876 17.6228 2.42404e-18)
(48.6899 18.2298 1.65493e-18)
(49.3506 18.8148 1.83049e-19)
(50.035 19.3603 -4.7295e-18)
(50.8393 19.9468 -1.66767e-19)
(51.3887 20.3956 -3.28096e-18)
(51.2489 20.5227 0)
(48.5668 19.7891 5.25718e-18)
(38.162 15.6115 -8.82361e-18)
(12.8302 4.26701 0)
(39.6465 0.171976 0)
(41.6008 0.0690368 0)
(41.6835 0.450646 3.3606e-20)
(41.7617 0.436967 1.94006e-21)
(41.8352 0.70229 -6.67978e-20)
(41.9694 0.812693 -3.58239e-20)
(42.0598 1.02383 0)
(42.1709 1.23861 7.26128e-20)
(42.2802 1.45472 -1.764e-19)
(42.3909 1.67318 0)
(42.5104 1.93171 3.0099e-19)
(42.6379 2.17118 -6.43705e-20)
(42.7691 2.44394 2.23896e-20)
(42.9029 2.73725 -2.49629e-20)
(43.0517 3.05608 0)
(43.1754 3.41424 0)
(43.3249 3.80632 -1.08447e-19)
(43.5136 4.21191 -2.53958e-19)
(43.6663 4.6339 1.03791e-19)
(43.773 5.10523 -4.58952e-20)
(43.9083 5.5799 1.06938e-19)
(44.0504 6.0427 -6.2227e-20)
(44.1828 6.53924 5.30888e-19)
(44.3221 7.06042 2.24433e-19)
(44.4726 7.59273 -4.19012e-19)
(44.6198 8.14234 -6.39234e-19)
(44.7655 8.69694 4.12481e-19)
(44.8565 9.22435 6.65937e-19)
(44.9353 9.73569 0)
(45.1218 10.2801 0)
(45.4161 10.9115 0)
(45.6615 11.584 -8.2825e-19)
(45.8503 12.2016 -5.9167e-19)
(46.1189 12.8122 -6.00319e-19)
(46.4175 13.4408 9.09141e-19)
(46.752 14.072 1.10642e-18)
(47.1227 14.7048 -5.06505e-19)
(47.5391 15.2802 1.55934e-18)
(47.9939 15.8736 -9.09893e-19)
(48.4707 16.4402 -1.2045e-18)
(48.9937 16.9768 -1.47657e-18)
(49.5561 17.4901 1.64638e-18)
(50.1613 17.9516 0)
(50.8831 18.4101 2.58375e-18)
(51.6927 18.8961 -1.39256e-18)
(51.9347 19.0591 1.74815e-18)
(51.292 18.9123 0)
(47.223 17.5748 -2.5875e-18)
(34.4599 12.6431 1.50931e-18)
(7.35599 1.38742 0)
(39.8279 0.199598 -4.65413e-20)
(41.7722 0.0918694 0)
(41.8692 0.389272 -1.10501e-19)
(41.91 0.442174 9.21786e-20)
(42.0243 0.696518 6.56676e-20)
(42.1424 0.811494 -3.72919e-21)
(42.2931 1.01092 4.15031e-21)
(42.4047 1.2305 0)
(42.5334 1.4553 1.69562e-19)
(42.686 1.70682 -1.50623e-19)
(42.8229 1.94898 -1.37132e-19)
(42.9694 2.2335 1.82857e-19)
(43.126 2.51842 -1.42871e-19)
(43.2828 2.82483 -3.80162e-20)
(43.4253 3.13428 2.21551e-20)
(43.6048 3.45069 0)
(43.7613 3.76502 -2.68858e-19)
(43.8698 4.12228 3.22895e-19)
(44.0185 4.50272 5.80157e-20)
(44.1893 4.86565 -4.53582e-21)
(44.349 5.3049 6.9442e-20)
(44.5011 5.78236 0)
(44.6618 6.2634 1.08324e-19)
(44.8263 6.76626 4.40577e-19)
(44.9955 7.28791 5.32832e-19)
(45.1588 7.82547 6.42884e-19)
(45.3122 8.38499 0)
(45.5453 8.99705 -4.69778e-19)
(45.8187 9.65545 -1.0179e-18)
(46.0543 10.3143 5.64081e-19)
(46.2064 10.8904 -1.2147e-18)
(46.3881 11.4288 -5.96922e-19)
(46.6843 12.0225 1.06674e-18)
(46.9781 12.6281 -3.90201e-19)
(47.284 13.2072 -9.1699e-19)
(47.6099 13.7621 -4.84995e-19)
(47.9821 14.2965 -6.67394e-19)
(48.3895 14.8629 0)
(48.8261 15.3753 -1.09174e-18)
(49.3115 15.8606 2.42293e-18)
(49.8216 16.3173 1.49187e-18)
(50.374 16.7294 -1.7663e-18)
(50.9988 17.1258 2.27807e-18)
(51.7066 17.5401 -1.16094e-18)
(52.1305 17.7574 2.9708e-18)
(52.0848 17.7352 7.37883e-21)
(50.5513 17.209 0)
(44.4699 15.0576 5.29237e-18)
(28.8806 9.08974 -4.48316e-18)
(4.34367 -0.0145383 -1.62759e-18)
(40.0082 0.0358229 4.66797e-20)
(41.9097 -0.0414635 -9.33103e-20)
(42.1065 0.270645 7.2948e-20)
(42.1863 0.412759 -9.04226e-20)
(42.2598 0.666359 -8.02731e-20)
(42.3804 0.817509 -5.22577e-21)
(42.5311 0.98782 3.03352e-21)
(42.68 1.16788 0)
(42.8352 1.38043 -1.61002e-19)
(42.9958 1.59743 2.51607e-19)
(43.1616 1.84696 0)
(43.3173 2.07972 -1.77708e-20)
(43.4868 2.33778 4.53882e-22)
(43.664 2.62393 2.00248e-19)
(43.8713 2.95233 -3.02319e-19)
(44.0422 3.31257 -2.89725e-21)
(44.2578 3.72589 4.24777e-20)
(44.5196 4.11203 0)
(44.7021 4.54729 -1.7077e-19)
(44.8724 5.03895 3.78953e-19)
(45.0886 5.48335 -4.42729e-20)
(45.2798 5.95868 0)
(45.4609 6.46669 0)
(45.6526 6.98645 -2.20754e-19)
(45.8477 7.51776 9.63131e-20)
(46.0388 8.0571 -7.07285e-19)
(46.2223 8.5973 2.65658e-19)
(46.3607 9.10627 -1.53324e-19)
(46.4704 9.58503 4.98334e-19)
(46.6644 10.0758 2.18268e-19)
(46.979 10.6432 7.02432e-19)
(47.2705 11.2585 -7.29823e-19)
(47.4897 11.8087 4.66645e-19)
(47.7648 12.3331 -4.8583e-19)
(48.0616 12.8631 -5.72631e-19)
(48.3979 13.3916 -6.18482e-19)
(48.7623 13.9205 0)
(49.1559 14.3732 1.46943e-18)
(49.5821 14.8298 -5.48296e-19)
(50.0115 15.2517 -1.31302e-18)
(50.4708 15.6297 1.56017e-18)
(50.9708 15.9875 -4.1598e-20)
(51.5048 16.3044 -1.15042e-18)
(52.1274 16.6054 -2.42933e-20)
(52.2975 16.647 -1.50271e-18)
(51.8194 16.4449 -3.81233e-18)
(48.9373 15.418 2.14885e-18)
(40.4582 12.3823 0)
(22.3698 5.64367 -2.90692e-18)
(1.84708 -0.403409 5.59009e-18)
(39.9179 -0.306973 1.9155e-22)
(42.1396 -0.268207 9.37733e-20)
(42.462 0.133601 -3.58457e-20)
(42.4937 0.285781 -1.17373e-21)
(42.557 0.5955 8.05176e-20)
(42.6227 0.785622 0)
(42.7539 0.97323 0)
(42.9135 1.15134 -5.20087e-21)
(43.0746 1.33343 2.83549e-19)
(43.2547 1.54664 -1.03789e-19)
(43.4443 1.77302 9.16983e-21)
(43.6434 2.05073 -2.13386e-20)
(43.8435 2.33284 9.84793e-20)
(44.0553 2.61377 -1.02969e-19)
(44.2514 2.90606 4.35707e-19)
(44.4919 3.21215 -9.89516e-20)
(44.6775 3.5148 1.18838e-19)
(44.8513 3.90641 3.38463e-20)
(45.0909 4.26306 -3.62358e-19)
(45.3131 4.64633 -2.46569e-19)
(45.4893 5.09784 3.62811e-21)
(45.7074 5.56261 -6.4362e-20)
(45.9197 6.0385 0)
(46.1311 6.54433 -2.95404e-19)
(46.3463 7.0606 3.26682e-21)
(46.5528 7.58991 7.05749e-20)
(46.7465 8.13017 7.59813e-20)
(46.9987 8.70762 1.97835e-19)
(47.3054 9.33126 0)
(47.5916 9.96223 1.33626e-19)
(47.7664 10.5087 7.52685e-19)
(47.9283 10.9885 6.87205e-19)
(48.2108 11.5098 -3.65505e-19)
(48.5041 12.0449 7.52178e-19)
(48.8049 12.5502 -6.11967e-19)
(49.1145 13.0215 -3.73668e-19)
(49.4568 13.4494 0)
(49.8245 13.9077 -9.83315e-19)
(50.1979 14.3079 -6.19469e-19)
(50.6081 14.6676 6.9194e-19)
(51.0407 15.0036 -8.24959e-19)
(51.4968 15.2849 9.68842e-19)
(52.1243 15.6076 0)
(52.3781 15.7185 6.45196e-19)
(52.2016 15.6575 0)
(50.7838 15.1595 9.50123e-19)
(46.0276 13.6407 -2.1496e-18)
(34.3736 9.83263 1.21561e-18)
(12.2724 2.42775 0)
(-0.197272 -0.180289 3.59468e-19)
(39.2686 -0.717684 3.11577e-23)
(42.5712 -0.370152 3.69611e-23)
(42.8236 -0.00873698 3.68306e-20)
(42.8482 0.102431 1.95422e-22)
(42.8386 0.440617 1.70838e-21)
(42.9228 0.591597 2.76851e-22)
(43.0216 0.84735 -3.08165e-22)
(43.1912 1.01611 7.95182e-22)
(43.3768 1.18888 -1.07699e-19)
(43.5663 1.36334 -2.38437e-21)
(43.7444 1.55983 -1.377e-21)
(43.9537 1.76299 3.19518e-21)
(44.1949 2.01446 1.1126e-19)
(44.4352 2.30426 -1.36647e-19)
(44.6881 2.61827 -1.7357e-19)
(44.9208 2.97703 9.877e-20)
(45.2226 3.37857 -1.15023e-19)
(45.5266 3.73917 -5.20458e-21)
(45.7621 4.20481 -6.2206e-21)
(45.9903 4.66872 0)
(46.2691 5.11827 -8.81812e-21)
(46.5304 5.61214 -5.01929e-21)
(46.7675 6.12711 5.6076e-21)
(47.0097 6.64401 0)
(47.237 7.1783 0)
(47.4557 7.71844 2.73821e-19)
(47.6617 8.25424 0)
(47.8362 8.76295 -1.98094e-19)
(47.9622 9.22832 0)
(48.1268 9.67398 9.60625e-21)
(48.4097 10.1757 -3.47485e-19)
(48.7151 10.7398 2.46394e-20)
(48.9423 11.2425 -4.84373e-19)
(49.1906 11.7037 4.31723e-20)
(49.4508 12.1559 2.74612e-19)
(49.7505 12.5998 4.21642e-19)
(50.0722 13.0586 -1.46016e-20)
(50.4028 13.4282 0)
(50.7605 13.7852 -1.0008e-20)
(51.1104 14.1147 1.16973e-20)
(51.4686 14.3884 0)
(51.9608 14.7098 -1.51671e-20)
(52.2356 14.8831 -6.77133e-20)
(52.2317 14.9138 -5.64483e-19)
(51.5658 14.6967 -1.23539e-20)
(48.8582 13.9043 0)
(41.433 11.6554 0)
(25.918 6.8326 1.65986e-19)
(5.47623 0.843138 -1.64167e-19)
(-1.27799 0.0172605 3.70071e-19)
(38.4654 -0.77093 8.2864e-20)
(43.1068 -0.276555 9.39463e-20)
(43.0226 -0.11784 5.15409e-20)
(43.1212 -0.0522748 6.25901e-20)
(43.1093 0.234521 6.64188e-20)
(43.1913 0.374946 -8.24459e-20)
(43.2421 0.608965 0)
(43.3704 0.820506 0)
(43.594 0.996414 7.20784e-20)
(43.7924 1.20219 2.38408e-21)
(44.0334 1.40912 -9.82594e-20)
(44.2743 1.62999 -7.15248e-21)
(44.4977 1.8714 -1.42454e-19)
(44.7721 2.13402 1.7213e-19)
(45.0619 2.4222 2.25737e-19)
(45.3458 2.70405 0)
(45.5767 3.01422 0)
(45.8324 3.39969 5.20384e-21)
(46.1539 3.7481 6.21971e-21)
(46.4491 4.16928 -2.70124e-19)
(46.664 4.60964 8.81679e-21)
(46.9295 5.07054 0)
(47.1767 5.55224 0)
(47.434 6.06821 -6.39219e-20)
(47.6841 6.59124 -3.14184e-19)
(47.9246 7.12059 9.42188e-20)
(48.1465 7.65754 0)
(48.3929 8.2137 -2.48911e-19)
(48.6989 8.80955 0)
(49.0112 9.43275 -9.60325e-21)
(49.1979 9.97661 0)
(49.3128 10.4221 0)
(49.5392 10.8892 1.31473e-19)
(49.797 11.3701 1.5379e-19)
(50.0647 11.8265 0)
(50.3331 12.2535 0)
(50.6153 12.6063 1.45937e-20)
(50.9171 12.9901 0)
(51.2058 13.3288 1.00015e-20)
(51.5123 13.611 -3.95593e-19)
(51.8966 13.9213 4.38146e-19)
(52.2564 14.1834 3.24237e-20)
(52.3407 14.244 1.98427e-20)
(52.0942 14.2067 -6.71389e-19)
(50.398 13.8216 -3.92446e-19)
(45.4731 12.4453 2.24014e-18)
(34.3541 9.2122 -1.01064e-18)
(14.6543 3.32453 -1.16242e-18)
(1.40723 0.294918 9.57147e-19)
(-1.86618 0.0443493 0)
(37.8848 -0.515991 -8.25265e-20)
(43.4946 -0.124528 1.16146e-19)
(43.0374 -0.195773 -5.00865e-20)
(43.3142 -0.150615 7.67529e-20)
(43.2755 0.0360693 -7.04611e-20)
(43.4285 0.0550867 8.4797e-20)
(43.4443 0.300751 6.82992e-21)
(43.6244 0.454262 -7.60445e-21)
(43.7928 0.633026 -6.21409e-20)
(44.0376 0.819908 -1.102e-20)
(44.2792 1.02969 1.04602e-19)
(44.5458 1.22744 2.79635e-19)
(44.8488 1.44293 -1.85952e-19)
(45.1147 1.69872 -1.57202e-19)
(45.4081 2.01042 -7.36336e-19)
(45.7483 2.36304 3.63512e-20)
(46.1305 2.72333 -4.05756e-20)
(46.4723 3.10092 4.23418e-19)
(46.7522 3.54482 6.20651e-20)
(47.0673 3.99359 2.00475e-19)
(47.4353 4.48796 0)
(47.739 4.98529 0)
(48.0406 5.51022 0)
(48.3494 6.04525 0)
(48.6033 6.59603 3.10022e-19)
(48.8426 7.15447 -8.06448e-19)
(49.0556 7.71191 0)
(49.2495 8.24602 7.95158e-19)
(49.3829 8.73336 0)
(49.4956 9.16308 0)
(49.7009 9.61559 -8.48968e-19)
(49.9793 10.1436 4.82965e-19)
(50.1947 10.622 -1.10036e-18)
(50.3975 11.0498 3.17402e-19)
(50.5991 11.4555 0)
(50.8392 11.8345 0)
(51.1021 12.2571 5.07704e-19)
(51.3535 12.5891 -1.74088e-18)
(51.6253 12.8857 0)
(51.9236 13.1984 -1.1719e-18)
(52.2653 13.5017 1.66441e-18)
(52.3749 13.614 -1.93532e-18)
(52.2349 13.6736 1.16923e-18)
(51.139 13.5249 -1.37584e-18)
(47.8108 12.6566 3.49139e-18)
(39.8694 10.4879 -3.07159e-18)
(24.5997 6.18118 1.98438e-18)
(5.73376 1.20189 -4.41595e-18)
(-1.24699 0.261698 5.26069e-18)
(-2.0291 0.0742976 -3.3756e-18)
(37.6968 -0.204646 -2.00275e-19)
(43.614 0.0371711 1.65959e-20)
(42.9474 -0.234649 0)
(43.4733 -0.235799 -1.38311e-19)
(43.3072 -0.0984207 -3.44764e-19)
(43.5915 -0.186668 1.18956e-20)
(43.61 0.0676963 0)
(43.8066 0.1367 0)
(43.9416 0.334582 -2.14637e-20)
(44.1685 0.537318 2.39101e-20)
(44.4708 0.719755 -4.97717e-19)
(44.7728 0.942558 3.23511e-19)
(45.0719 1.17938 3.3707e-19)
(45.409 1.41242 -4.41797e-19)
(45.7457 1.62217 4.87998e-19)
(46.0741 1.90158 8.00772e-20)
(46.3749 2.23549 -8.61363e-19)
(46.7339 2.59047 -1.34915e-18)
(47.1492 2.95812 0)
(47.4863 3.36433 6.61931e-19)
(47.7692 3.81009 7.86981e-19)
(48.1091 4.29787 0)
(48.4225 4.80644 -1.10084e-18)
(48.6915 5.3473 0)
(48.9853 5.89772 0)
(49.2562 6.45875 8.03724e-19)
(49.499 7.01975 5.26183e-19)
(49.733 7.58569 1.20454e-18)
(50.0098 8.17955 0)
(50.3163 8.81549 0)
(50.5022 9.39288 4.00094e-19)
(50.5651 9.84292 4.98095e-19)
(50.707 10.2813 1.78838e-18)
(50.8954 10.726 2.03142e-20)
(51.1084 11.1464 2.39716e-20)
(51.3247 11.5646 -1.78365e-18)
(51.5363 11.8763 -3.26188e-20)
(51.7675 12.2077 2.33396e-18)
(52.0007 12.5388 1.3832e-18)
(52.2973 12.8546 7.56675e-19)
(52.4518 13.0524 1.77883e-18)
(52.4052 13.1631 5.5059e-20)
(51.7371 13.1599 -2.34287e-18)
(49.5477 12.6379 -1.3547e-18)
(43.6738 11.1874 -3.85139e-18)
(31.5061 7.98423 4.33846e-18)
(11.416 2.63536 -1.93481e-18)
(0.93619 0.623824 0)
(-2.39193 0.303985 0)
(-1.87866 0.184207 6.63949e-19)
(37.7773 0.0389092 6.05934e-19)
(43.5345 0.163769 2.50699e-19)
(42.6593 -0.23956 -2.52953e-19)
(43.5778 -0.303533 9.65885e-21)
(43.2492 -0.184747 6.79973e-19)
(43.6825 -0.395718 -1.26631e-20)
(43.6795 -0.16006 0)
(44.001 -0.264682 -6.16527e-19)
(44.1084 -0.0153058 -2.28619e-20)
(44.3975 0.0825077 -2.25429e-21)
(44.6479 0.2214 1.05294e-18)
(44.9402 0.408013 -5.60994e-19)
(45.2839 0.617195 3.98684e-21)
(45.6397 0.872785 3.85932e-19)
(46.0136 1.17177 0)
(46.424 1.44919 0)
(46.8754 1.78142 6.65816e-19)
(47.2612 2.15998 1.04017e-18)
(47.622 2.57738 0)
(48.0606 3.04704 -6.59837e-19)
(48.4877 3.54631 -7.84341e-19)
(48.8616 4.06424 -2.4997e-19)
(49.2399 4.6219 1.80713e-19)
(49.621 5.18638 1.05939e-18)
(49.9467 5.77945 3.85247e-19)
(50.208 6.39205 4.68305e-19)
(50.4323 7.00474 -1.54518e-18)
(50.6271 7.60061 -1.18361e-18)
(50.7653 8.1555 1.47773e-18)
(50.8206 8.62367 -1.69337e-18)
(50.9161 9.06074 0)
(51.1195 9.57313 0)
(51.2954 10.053 4.8742e-20)
(51.4412 10.47 -1.38411e-18)
(51.5725 10.8605 1.63515e-18)
(51.7387 11.1806 2.7998e-18)
(51.9378 11.5705 -1.04023e-18)
(52.1321 11.9039 -2.45008e-18)
(52.3739 12.1931 -2.73125e-18)
(52.5908 12.5032 -1.5547e-18)
(52.6036 12.6468 -4.35669e-20)
(52.1705 12.7308 2.04188e-18)
(50.6097 12.4368 0)
(46.0551 11.4555 1.34059e-18)
(36.1299 8.96281 1.51903e-18)
(18.7325 4.46057 1.69066e-18)
(3.70991 1.12096 5.68106e-18)
(-1.60197 0.625976 -2.12068e-18)
(-2.80075 0.425854 0)
(-1.66845 0.263632 0)
(38.013 0.187956 -7.05176e-21)
(43.3794 0.20194 -4.75909e-19)
(42.2735 -0.16167 2.62385e-19)
(43.6268 -0.34339 -6.36334e-19)
(43.1499 -0.201487 -3.67847e-19)
(43.6885 -0.493077 -7.70859e-22)
(43.6314 -0.269425 1.53594e-20)
(44.0539 -0.513096 5.75352e-19)
(44.1716 -0.216171 4.44366e-20)
(44.4604 -0.236754 5.82111e-20)
(44.7209 -0.0629627 -5.18799e-19)
(45.0523 0.0629794 -7.80392e-20)
(45.3975 0.258191 -8.0224e-19)
(45.813 0.42446 -9.76619e-19)
(46.2286 0.610652 1.52257e-19)
(46.6009 0.893124 -1.69836e-19)
(46.9886 1.18599 0)
(47.4664 1.4972 -1.05564e-18)
(47.9482 1.86384 0)
(48.3499 2.25949 0)
(48.7561 2.7244 0)
(49.1759 3.2245 -5.39312e-19)
(49.5748 3.77175 1.79191e-18)
(49.8879 4.36442 -1.39889e-18)
(50.2436 4.97738 0)
(50.5576 5.60436 -5.05409e-19)
(50.8346 6.23223 -1.82771e-18)
(51.0771 6.86106 -2.76008e-18)
(51.3118 7.49622 -2.23879e-18)
(51.5826 8.17431 1.61542e-18)
(51.7573 8.83102 -1.98478e-18)
(51.7687 9.3361 1.11904e-18)
(51.8028 9.77493 2.6322e-18)
(51.8811 10.2042 0)
(52.0073 10.5801 1.74971e-18)
(52.157 10.9969 -3.75375e-18)
(52.3038 11.2933 -5.00757e-20)
(52.4949 11.5721 2.41012e-18)
(52.7201 11.9471 1.33629e-18)
(52.7772 12.1266 0)
(52.5083 12.2528 1.82283e-18)
(51.332 12.1371 -2.0765e-18)
(47.7476 11.519 4.69942e-18)
(39.7806 9.59205 0)
(24.786 5.85189 -5.9569e-18)
(7.10154 1.76186 1.64916e-18)
(-0.331436 0.800068 -1.86455e-18)
(-2.65097 0.613701 -2.0791e-18)
(-2.81107 0.524118 4.631e-18)
(-1.43112 0.288871 1.42509e-21)
(38.3249 0.326924 -3.99226e-19)
(43.2466 0.0788234 4.75038e-19)
(41.9186 -0.0649367 -4.93478e-19)
(43.613 -0.348543 1.26414e-18)
(42.9575 -0.187068 -6.9261e-19)
(43.6407 -0.625699 5.37136e-20)
(43.5276 -0.381779 -5.18129e-19)
(44.0682 -0.782722 0)
(44.1754 -0.517843 -7.16913e-19)
(44.586 -0.654797 9.86844e-19)
(44.7972 -0.489175 5.33979e-21)
(45.1457 -0.432599 -8.00206e-20)
(45.4916 -0.326965 7.99558e-19)
(45.8685 -0.130344 -2.5532e-20)
(46.3445 0.119843 1.06147e-18)
(46.8634 0.335487 1.76274e-19)
(47.3714 0.612564 0)
(47.8275 0.962192 1.05093e-18)
(48.2961 1.35225 2.66053e-18)