/*--------------------------------*- C++ -*----------------------------------*\
| =========                 |                                                 |
| \\      /  F ield         | OpenFOAM: The Open Source CFD Toolbox           |
|  \\    /   O peration     | Version:  v1912                                 |
|   \\  /    A nd           | Website:  www.openfoam.com                      |
|    \\/     M anipulation  |                                                 |
\*---------------------------------------------------------------------------*/
FoamFile
{
    version     2.0;
    format      ascii;
    class       volScalarField;
    location    "0.42";
    object      p;
}
// * * * * * * * * * * * * * * * * * * * * * * * * * * * * * * * * * * * * * //

dimensions      [0 2 -2 0 0 0 0];


internalField   nonuniform List<scalar> 
6600
(
461.258
456.522
454.073
452.596
451.519
450.783
450.088
449.326
448.529
447.766
447.018
446.225
445.385
444.516
443.565
442.635
441.672
440.623
439.487
438.127
436.471
434.729
432.891
430.695
428.066
425.111
421.789
417.937
413.202
407.298
400.168
391.823
381.944
370.164
355.969
339.185
319.18
295.362
267.116
233.766
194.64
148.946
95.8179
34.4408
-36.5675
-118.401
-210.528
-313.751
-434.657
-568.864
458.083
453.074
451.342
449.704
448.246
447.013
445.886
444.78
443.687
442.624
441.543
440.362
439.121
437.856
436.454
434.919
433.265
431.475
429.484
427.615
425.232
422.418
419.345
415.921
411.97
407.392
402.154
396.312
389.534
381.438
371.833
360.775
347.912
332.773
314.917
293.755
268.998
240.11
206.39
167.158
121.755
69.3401
8.80239
-60.4159
-140.135
-231.112
-332.927
-445.438
-573.793
-715.471
453.752
448.51
447.5
445.598
443.849
442.297
440.83
439.417
438.05
436.64
435.175
433.635
432
430.24
428.357
426.275
424.014
421.554
418.683
415.558
412.255
408.417
404.045
399.209
393.839
387.79
380.757
372.661
363.512
352.954
340.566
326.253
309.785
290.863
268.968
243.316
213.634
179.393
139.829
94.4373
42.5359
-16.8488
-84.7026
-162.016
-249.787
-349.132
-459.676
-580.236
-711.984
-853.018
448.679
443.205
442.619
440.187
438.314
436.586
434.864
433.138
431.438
429.681
427.793
425.787
423.662
421.365
418.858
416.088
413.03
409.732
406.231
402.087
397.536
392.482
386.795
380.429
373.312
365.387
356.458
346.037
334.19
320.727
305.327
287.708
267.638
244.655
218.319
187.967
153.195
113.401
68.1794
16.665
-41.7925
-108.084
-183.209
-267.95
-362.936
-469.447
-587.16
-713.569
-846.234
-983.155
443.021
437.222
436.928
433.772
431.974
430.107
428.179
426.173
424.061
421.854
419.508
416.984
414.26
411.301
408.104
404.629
400.781
396.426
391.704
386.495
380.647
374.21
367.098
359.196
350.429
340.359
329.033
316.341
301.991
285.578
266.867
245.717
221.781
194.522
163.533
128.538
88.8493
43.6997
-7.41152
-64.9321
-129.669
-202.433
-283.875
-374.79
-475.803
-587.969
-710.762
-840.963
-973.406
-1105.29
436.689
430.624
430.674
426.86
425.324
423.191
420.938
418.638
416.199
413.555
410.687
407.59
404.225
400.494
396.406
391.934
387.098
381.857
376.029
369.634
362.417
354.36
345.463
335.638
325.136
312.96
299.272
283.883
266.582
247.167
225.284
200.612
172.853
141.55
106.217
66.4386
21.7165
-28.5324
-84.8591
-147.885
-218.249
-296.596
-383.471
-479.317
-584.644
-700.557
-826.7
-959.538
-1090.97
-1216.26
429.708
423.603
423.905
419.513
418.282
415.684
413.157
410.544
407.742
404.711
401.39
397.746
393.726
389.314
384.475
379.089
373.072
366.469
359.297
351.602
342.929
333.354
322.72
310.948
297.92
283.441
267.405
249.531
229.42
206.789
181.566
153.411
121.918
86.6304
47.0513
2.79714
-46.4629
-101.386
-162.636
-230.533
-305.593
-388.353
-479.146
-578.43
-686.589
-804.559
-932.393
-1066.65
-1196.31
-1312.59
422.189
416.254
416.586
411.698
410.688
407.408
404.816
401.924
398.719
395.212
391.381
387.152
382.46
377.297
371.657
365.379
358.51
350.862
342.373
333.038
322.73
311.455
298.973
285.183
269.941
253.043
234.327
213.591
190.644
165.123
136.696
105.028
69.8211
30.7679
-12.5899
-60.7952
-114.269
-173.368
-238.456
-310.143
-388.863
-474.909
-568.589
-670.076
-779.589
-898.132
-1026.24
-1160.55
-1286.98
-1391.45
414.17
408.541
408.81
403.535
402.74
398.691
396.163
392.868
389.234
385.218
380.803
375.911
370.523
364.6
358.052
350.742
342.648
333.853
324.151
313.436
301.643
288.712
274.444
258.596
241.08
221.763
200.586
177.221
151.327
122.701
91.1546
56.3244
17.8442
-24.6693
-71.6029
-123.338
-180.172
-242.569
-311.01
-385.665
-466.871
-554.994
-650.141
-752.538
-862.384
-980.365
-1106.97
-1239.25
-1361
-1451.6
405.667
400.507
400.558
395.425
394.656
390.005
387.542
383.602
379.43
374.813
369.701
364.057
357.839
350.974
343.476
335.266
326.163
316.083
305.058
292.865
279.444
264.742
248.723
231.163
211.748
190.213
166.425
140.384
111.914
80.6202
46.1799
8.358
-33.1695
-78.7271
-128.625
-183.208
-242.849
-307.834
-378.34
-454.833
-537.594
-626.785
-722.559
-824.881
-933.862
-1050.21
-1174.01
-1301.72
-1417.15
-1492.64
396.817
392.478
392.202
387.487
386.439
381.706
378.813
374.408
369.765
364.541
358.731
352.308
345.206
337.394
328.76
319.3
309.037
297.722
285.337
271.802
256.909
240.498
222.476
202.865
181.476
158.086
132.424
104.142
73.0503
39.117
2.10419
-38.2706
-82.2866
-130.264
-182.554
-239.435
-301.082
-367.747
-439.82
-517.412
-600.689
-689.865
-784.962
-886.08
-993.312
-1107.04
-1226.69
-1348.36
-1455.71
-1515.85
388.124
384.651
384.028
379.842
378.205
373.571
370.386
365.427
360.285
354.494
348.046
340.895
332.962
324.243
314.687
304.127
292.559
279.971
266.112
250.975
234.519
216.602
196.974
175.519
152.119
126.536
98.6848
68.4491
35.5221
-0.471416
-39.67
-82.2336
-128.409
-178.444
-232.552
-290.941
-353.87
-421.591
-494.163
-571.827
-654.767
-743.077
-836.827
-935.881
-1040.21
-1150.18
-1265.42
-1380.14
-1477.2
-1523.05
380
377.366
376.386
372.556
370.383
365.839
362.528
356.995
351.469
345.149
338.123
330.314
321.658
312.028
301.457
289.874
277.138
263.291
248.234
231.725
213.664
193.988
172.608
149.371
124.177
96.9105
67.2814
35.0415
0.099702
-37.7097
-78.6574
-122.918
-170.69
-222.141
-277.474
-336.93
-400.612
-468.569
-541.086
-618.262
-700.074
-786.608
-877.839
-973.833
-1074.59
-1180.14
-1289.89
-1397.62
-1484.74
-1517.96
372.804
370.694
369.481
365.951
363.412
358.757
355.399
349.207
343.418
336.682
329.125
320.707
311.389
301.102
289.702
277.201
263.504
248.429
232.007
214.214
194.887
173.861
151
126.201
99.2097
69.9345
38.4415
4.59511
-31.9012
-71.3076
-113.772
-159.41
-208.355
-260.823
-316.987
-376.848
-440.542
-508.269
-580.012
-655.812
-735.765
-819.852
-908.097
-1000.31
-1096.44
-1196.72
-1300.25
-1400.92
-1480.1
-1503.51
366.643
365.061
363.722
360.451
357.671
352.792
349.503
342.507
336.673
329.492
321.471
312.539
302.59
291.636
279.527
266.217
251.679
235.832
218.414
199.351
178.633
156.197
131.905
105.727
77.5444
47.0379
13.9916
-21.5608
-59.6151
-100.338
-143.918
-190.604
-240.587
-293.844
-350.343
-410.298
-473.769
-540.705
-611.197
-685.263
-762.842
-843.917
-928.284
-1015.88
-1106.58
-1200.69
-1296.17
-1387.59
-1457.45
-1478.03
362.004
360.712
359.321
356.162
353.295
348.565
344.463
337.407
331.551
323.947
315.523
306.139
295.745
284.217
271.553
257.59
242.16
225.368
207.158
187.312
165.685
142.204
116.759
89.2215
59.5259
27.674
-6.51535
-43.2024
-82.542
-124.62
-169.445
-216.969
-267.31
-320.755
-377.473
-437.247
-500.018
-565.859
-634.759
-706.632
-781.329
-858.796
-939.102
-1021.75
-1106.1
-1192.71
-1278.06
-1355.86
-1410.37
-1429.93
359.011
357.831
356.363
353.332
350.327
345.597
340.985
334.605
328.103
320.343
311.65
301.907
291.1
279.116
265.927
251.482
235.633
218.157
199.015
178.211
155.646
131.21
104.869
76.4917
45.9493
12.9976
-22.3209
-60.0803
-100.3
-143.086
-188.599
-236.955
-288.165
-342.082
-398.607
-457.896
-519.954
-584.641
-651.815
-721.323
-793.126
-866.977
-942.473
-1019.47
-1097.63
-1175.27
-1248.01
-1307.78
-1341.33
-1357.12
357.654
356.428
354.927
351.816
348.851
344.137
339.407
333.217
326.53
318.702
309.947
300.079
289.053
276.785
263.177
248.15
231.754
213.891
194.338
172.972
149.707
124.459
97.0916
67.629
36.1314
2.42039
-33.7578
-72.3851
-113.566
-157.365
-203.661
-252.4
-303.631
-357.489
-413.999
-472.979
-534.232
-597.648
-663.119
-730.464
-799.208
-869.191
-940.292
-1011.66
-1083.2
-1151.75
-1212.16
-1254.6
-1268.69
-1278.22
357.98
356.472
354.931
351.813
348.817
344.203
339.632
333.463
326.861
319.07
310.317
300.461
289.426
277.119
263.46
248.263
231.396
212.905
192.766
170.86
147.055
121.271
93.3865
63.2419
30.8956
-3.72315
-40.7227
-80.0698
-121.769
-165.97
-212.814
-262.198
-314.037
-368.221
-424.64
-483.209
-543.848
-606.35
-670.422
-735.679
-802.014
-868.96
-935.982
-1002.35
-1067.11
-1126.78
-1176.22
-1207.38
-1216.13
-1219.95
359.756
357.796
356.303
353.133
350.326
345.687
341.342
335.388
329.054
321.433
312.848
303.13
292.196
279.925
266.247
251.106
234.331
215.725
195.255
172.886
148.513
122.017
93.4186
62.6081
29.5992
-5.76404
-43.4537
-83.5186
-126.1
-171.029
-218.359
-268.085
-320.179
-374.536
-431.013
-489.497
-549.817
-611.661
-674.669
-738.634
-802.905
-867.06
-930.629
-993.69
-1053.9
-1106.84
-1146.67
-1167.67
-1179.1
-1179.85
362.639
360.267
358.885
355.58
353.07
348.466
344.836
338.591
332.762
325.501
317.266
307.922
297.333
285.393
271.905
256.787
240.006
221.399
200.841
178.251
153.608
126.756
97.6346
66.2562
32.4858
-3.68848
-42.2799
-82.792
-126.02
-171.729
-219.826
-270.198
-322.705
-377.4
-434.216
-492.943
-553.234
-614.889
-677.553
-740.562
-803.886
-867.238
-929.607
-989.903
-1045.38
-1092.76
-1124.77
-1135.42
-1143.71
-1145.77
366.666
363.609
362.508
358.941
356.902
352.456
348.875
343.476
337.821
331.051
323.237
314.448
304.292
292.909
279.937
265.292
248.805
230.341
209.827
187.128
162.165
134.94
105.358
73.4079
39.0729
2.21908
-37.128
-78.7839
-122.697
-168.911
-217.583
-268.628
-322.029
-377.502
-434.836
-493.848
-554.608
-616.697
-679.566
-742.922
-805.988
-868.54
-930.043
-988.69
-1041.18
-1081.83
-1104.54
-1112.26
-1113.84
-1118.5
371.179
367.582
366.619
363.256
361.167
357.379
353.849
349.159
344.003
337.881
330.741
322.477
312.833
302.353
289.78
275.672
259.757
241.673
221.384
198.846
173.916
146.49
116.59
84.1296
49.0873
11.5677
-28.5018
-71.1504
-116.2
-163.55
-213.292
-265.179
-319.021
-374.993
-433.105
-493.24
-554.843
-617.761
-681.69
-745.806
-809.819
-873.16
-934.839
-991.938
-1041.03
-1074
-1084.62
-1093.83
-1093.1
-1098.33
375.874
371.975
371.06
367.981
365.864
362.684
359.466
355.39
350.799
345.36
339.016
331.593
322.881
312.881
301.309
287.898
272.949
255.464
235.512
213.094
188.201
160.692
130.504
97.6697
62.0926
23.7781
-17.2272
-60.7454
-106.738
-155.042
-205.727
-258.708
-313.859
-371.006
-430.069
-490.985
-553.827
-618.216
-683.565
-749.596
-815.548
-879.953
-941.164
-996.885
-1043.3
-1071.21
-1075.53
-1077.08
-1079.49
-1082.76
380.307
376.737
375.264
372.628
370.603
367.893
365.123
361.71
357.815
353.145
347.66
341.138
333.401
324.303
313.496
300.574
287.518
270.823
251.451
229.506
204.837
177.428
147.13
113.888
77.7946
38.8289
-3.00673
-47.7339
-95.215
-144.958
-196.974
-251.222
-307.529
-365.547
-425.542
-487.706
-552.009
-618.197
-685.989
-754.245
-822.142
-888.892
-951.195
-1005.88
-1044.64
-1060.93
-1071.62
-1066.45
-1069.58
-1071.48
384.098
381.276
379.176
377.333
375.222
372.952
370.602
367.675
364.464
360.631
356.136
350.708
344.148
336.264
326.738
315.178
301.704
287.452
268.729
247.35
223.133
195.891
165.615
132.109
95.3659
55.5663
12.7909
-32.9516
-81.6537
-133.111
-186.587
-242.398
-299.98
-359.464
-420.612
-483.748
-549.333
-617.459
-687.569
-759.357
-831.112
-899.647
-962.14
-1014.42
-1046.59
-1052.68
-1054.6
-1055.63
-1059.41
-1061.75
386.65
385.654
382.386
381.714
379.374
377.498
375.543
373.191
370.625
367.576
364.02
359.68
354.315
347.689
339.555
329.605
317.549
303.378
286.863
266.322
242.852
216.12
185.946
152.339
115.236
74.6496
30.6812
-16.3746
-66.5022
-119.708
-175.391
-233.265
-292.781
-353.657
-415.749
-479.552
-546.015
-615.919
-689.144
-764.86
-840.5
-912.289
-976.658
-1023.65
-1042.35
-1049.99
-1047
-1048.65
-1050.94
-1052.78
387.363
390.247
384.911
385.272
382.898
381.472
379.927
378.175
376.185
373.876
371.224
367.982
363.899
358.661
351.94
343.486
332.985
320.214
304.63
285.611
263.04
236.983
207.128
173.35
135.695
94.334
49.2176
0.524398
-51.4398
-106.287
-164.137
-224.008
-285.901
-348.693
-412.162
-476.481
-542.929
-613.593
-689.012
-768.472
-849.803
-926.125
-993.021
-1035.12
-1039.37
-1044.26
-1041.57
-1042.19
-1042.18
-1042.75
385.542
394.102
387.006
388.432
386.135
385.008
383.813
382.475
381.013
379.42
377.532
375.085
372.087
368.302
363.179
356.328
347.48
336.393
322.421
304.957
283.751
258.393
228.894
195.263
157.361
115.189
68.9299
18.6264
-35.4348
-93.1491
-153.558
-216.411
-280.712
-345.888
-410.913
-475.83
-541.619
-610.825
-686.73
-770.152
-859.176
-945.545
-1017.27
-1043.58
-1046.74
-1039.46
-1037.32
-1034.19
-1031.95
-1030.83
360.508
391.645
388.57
390.526
388.886
387.867
386.871
386.195
385.5
384.428
383.318
381.608
379.234
376.208
372.539
367.542
360.457
350.963
338.722
322.843
302.917
278.546
248.957
214.956
176.688
133.86
86.2326
34.1663
-21.7191
-81.8175
-145.154
-211.34
-278.678
-346.661
-414.229
-479.991
-544.927
-610.138
-682.454
-766.698
-858.4
-945.931
-1015.99
-1039.27
-1051.5
-1034.95
-1031.59
-1025.94
-1020.96
-1017.6
551.298
547.105
545.263
544.146
543.339
542.881
542.89
543.295
543.898
544.667
545.711
547.128
548.847
550.892
553.243
555.824
558.638
561.818
565.332
569.12
573.128
577.384
582.032
587.015
592.236
597.751
603.311
608.786
614.251
619.754
625.185
630.351
635.144
639.285
642.681
645.249
646.724
646.43
643.792
638.626
630.676
619.354
603.957
583.827
558.231
526.34
487.728
442.973
386.145
327.395
548.868
545.111
543.696
542.458
541.665
541.307
541.257
541.454
541.874
542.522
543.334
544.487
545.983
547.749
549.841
552.218
554.773
557.504
560.544
563.782
567.175
570.665
574.359
578.331
582.429
586.631
591.128
595.575
599.79
603.705
607.319
610.562
613.213
614.912
615.557
615.018
613.138
609.497
603.371
594.296
581.998
565.967
545.513
520.016
488.747
450.94
406.145
355.094
293.471
229.42
545.906
542.462
541.538
540.39
539.694
539.375
539.346
539.512
539.819
540.461
541.339
542.353
543.614
545.068
546.705
548.656
550.954
553.375
555.886
558.556
561.408
564.342
567.294
570.281
573.418
576.386
579.198
581.995
584.719
587.129
588.885
590.002
590.299
589.544
587.437
583.787
578.427
571.04
561.012
547.823
531.106
510.353
484.875
454.253
417.492
374.093
323.609
266.759
202.809
138.518
542.728
539.44
539.075
538.164
537.541
537.185
537.067
537.206
537.572
538.128
538.989
540.016
541.173
542.512
543.926
545.447
547.2
549.247
551.362
553.408
555.496
557.678
559.866
561.894
563.735
565.591
567.188
568.393
569.184
569.556
569.382
568.321
566.203
562.765
557.794
550.977
542.084
530.961
516.961
499.59
478.398
452.952
422.742
387.175
345.66
297.52
242.455
181.733
116.683
54.8036
539.411
536.257
536.245
535.399
534.911
534.592
534.456
534.493
534.842
535.405
536.141
537.027
538.004
539.103
540.355
541.667
542.992
544.31
545.874
547.52
548.924
550.216
551.424
552.599
553.438
553.704
553.676
553.352
552.429
550.776
548.175
544.691
540.059
533.93
526.055
516.176
503.943
488.99
471.035
449.694
424.452
394.804
360.338
320.639
275.306
223.683
165.563
102.65
37.411
-20.8402
535.911
532.924
533.124
532.026
531.61
531.356
531.247
531.276
531.466
531.839
532.385
533.126
533.966
534.811
535.713
536.634
537.629
538.473
539.134
539.923
540.647
541.098
541.193
540.951
540.681
540.024
538.587
536.417
533.502
529.804
525.031
519.052
511.711
502.809
492.058
479.103
463.614
445.275
423.758
398.757
369.928
336.849
299.091
256.358
208.418
154.755
95.1837
31.419
-32.9672
-86.2802
532.36
529.367
529.718
528.236
527.848
527.578
527.384
527.357
527.512
527.739
527.948
528.272
528.722
529.247
529.768
530.168
530.453
530.792
530.919
530.703
530.378
529.914
529.196
527.844
525.791
523.384
520.471
516.77
512.047
506.106
499.099
490.725
480.897
469.295
455.72
439.937
421.541
400.238
375.776
347.872
316.228
280.541
240.557
196.023
146.742
92.3678
32.5682
-30.8688
-92.9372
-139.698
528.428
525.431
525.82
524.106
523.864
523.453
523.17
522.956
522.838
522.86
522.909
522.889
522.806
522.709
522.661
522.57
522.253
521.641
520.894
519.83
518.337
516.429
514.283
511.869
508.711
504.749
499.971
494.333
487.744
479.982
470.821
460.186
447.897
433.81
417.694
399.281
378.37
354.702
327.969
297.948
264.438
227.222
186.085
140.86
91.3741
37.3135
-21.3137
-82.8245
-141.316
-180.119
523.952
521.009
521.334
519.725
519.438
518.895
518.481
518.22
517.927
517.55
517.193
516.814
516.335
515.641
514.762
513.755
512.699
511.414
509.68
507.595
505.154
502.166
498.447
494.273
489.412
483.787
477.359
469.9
461.268
451.476
440.312
427.7
413.38
397.124
378.852
358.397
335.493
309.98
281.664
250.33
215.812
177.98
136.735
91.8946
43.2478
-9.53483
-66.165
-124.452
-177.683
-207.377
518.987
516.328
516.476
514.855
514.521
513.892
513.307
512.76
512.283
511.745
511.044
510.185
509.211
508.083
506.672
504.905
502.692
500.289
497.57
494.292
490.447
486.202
481.26
475.541
469.221
461.896
453.538
444.214
433.794
422.096
409.043
394.434
378.196
360.201
340.194
318.074
293.79
267.156
237.973
206.1
171.425
133.855
93.2991
49.6794
2.82273
-47.6635
-101.423
-155.553
-202.695
-224.289
513.479
511.193
511.149
509.634
509.177
508.337
507.711
506.99
506.143
505.219
504.195
502.986
501.48
499.672
497.568
495.189
492.366
488.917
485.036
480.755
475.759
470.072
463.689
456.29
448.12
439.195
429.26
418.13
405.841
392.352
377.572
361.399
343.623
324.097
302.826
279.678
254.462
227.161
197.712
165.99
131.882
95.3145
56.2834
14.6886
-29.5891
-76.7536
-126.716
-176.517
-218.373
-234.12
507.426
505.394
505.175
503.942
503.488
502.469
501.564
500.693
499.646
498.343
496.835
495.156
493.252
491.004
488.318
485.029
481.3
477.019
472.036
466.482
460.293
453.356
445.61
437.081
427.443
416.72
405.084
392.422
378.581
363.454
347.037
329.265
310.176
289.637
267.45
243.608
218.106
190.809
161.653
130.609
97.645
62.7242
25.8064
-13.068
-53.9941
-97.2352
-142.131
-186.531
-223.279
-236.989
500.597
499.186
498.962
497.823
497.336
496.378
495.399
494.203
492.827
491.26
489.395
487.14
484.514
481.538
478.225
474.492
470.063
464.977
459.181
452.674
445.354
437.108
427.959
417.82
406.793
394.766
381.587
367.32
351.966
335.48
317.808
298.912
278.686
257.184
234.458
210.383
184.887
158.01
129.692
99.9114
68.6418
35.8967
1.73651
-33.8554
-70.8063
-109.22
-147.787
-184.198
-211.933
-224.814
493.587
492.698
492.635
491.661
491.057
489.981
489
487.716
486.08
484.174
481.99
479.451
476.434
472.855
468.608
463.913
458.716
452.873
446.203
438.609
430.272
420.992
410.806
399.566
387.149
373.678
359.197
343.616
326.906
309.134
290.251
270.277
249.319
227.326
204.235
180.124
155.023
128.898
101.775
73.5959
44.436
14.3501
-16.6157
-48.2817
-81.1205
-113.866
-144.548
-169.349
-183.379
-193.793
486.616
486.16
486.142
485.325
484.918
483.829
482.684
481.302
479.579
477.452
474.863
471.829
468.351
464.439
459.903
454.518
448.413
441.667
434.295
425.908
416.518
406.136
394.643
382.155
368.64
353.953
338.132
321.246
303.349
284.411
264.55
243.774
222.074
199.573
176.427
152.616
128.151
103.052
77.3009
51.0331
24.2215
-3.00243
-30.4211
-58.0689
-85.6069
-111.967
-135.324
-151.938
-158.035
-163.149
479.741
479.698
479.792
479.074
478.652
477.727
476.658
475.157
473.321
471.143
468.51
465.31
461.456
456.928
451.853
446.12
439.522
431.893
423.478
414.233
403.984
392.676
380.315
366.711
351.963
336.111
319.117
301.026
281.926
261.898
240.953
219.248
196.964
174.186
150.903
127.287
103.47
79.5382
55.488
31.1636
6.80204
-17.4957
-41.6798
-65.4294
-88.0451
-108.692
-125.591
-136.922
-144.281
-145.93
472.876
473.333
473.546
473.208
472.893
471.963
471.022
469.575
467.66
465.3
462.46
459.153
455.314
450.745
445.329
439.113
432.151
424.273
415.23
405.084
393.883
381.534
368.082
353.473
337.635
320.586
302.386
283.085
262.733
241.492
219.539
197.004
173.944
150.576
127.216
103.919
80.7782
57.8361
35.1573
12.9065
-9.12671
-30.9126
-52.1186
-72.405
-91.1949
-107.576
-119.91
-126.251
-131.365
-132.628
466.301
467.385
467.631
467.543
467.582
466.844
465.913
464.566
462.815
460.562
457.71
454.212
450.098
445.397
439.974
433.614
426.246
417.964
408.634
398.171
386.399
373.391
359.033
343.424
326.512
308.303
288.798
268.13
246.417
223.818
200.481
176.648
152.66
128.666
104.765
81.3266
58.5456
36.5878
15.442
-5.2338
-25.4016
-44.618
-62.9186
-80.3161
-96.0351
-108.399
-115.973
-121.892
-123.435
-124.957
459.755
461.645
462.206
462.388
462.614
462.226
461.583
460.336
458.644
456.446
453.739
450.442
446.393
441.544
435.98
429.66
422.378
413.992
404.484
393.747
381.603
368.037
352.962
336.427
318.56
299.286
278.523
256.479
233.235
209.008
184.105
158.826
133.318
107.927
83.0958
59.0803
36.2865
14.8058
-5.44253
-24.3743
-42.3016
-59.2672
-74.9571
-89.3997
-102.014
-111.565
-116.621
-119.668
-120.958
-121.525
453.81
456.177
456.961
457.671
458.303
458.277
458.025
457.087
455.647
453.588
450.868
447.566
443.675
439.023
433.478
427.084
419.811
411.562
402.171
391.536
379.497
365.913
350.669
333.638
314.853
294.32
272.244
248.622
223.643
197.525
170.508
143.069
115.767
88.7525
62.2617
36.9598
13.2774
-8.35992
-27.7805
-45.4548
-61.4263
-75.6052
-88.4183
-99.643
-108.607
-114.612
-119.309
-120.384
-121.251
-121.254
447.69
451.021
452.145
453.472
454.587
455.13
455.184
454.508
453.362
451.662
449.285
446.13
442.284
437.789
432.533
426.381
419.317
411.297
402.128
391.68
379.759
366.219
350.846
333.725
314.627
293.392
270.152
244.949
218.058
189.749
160.368
130.318
100.092
70.2974
41.3145
13.6561
-11.6054
-33.8986
-53.2432
-69.6158
-83.0581
-94.26
-103.538
-110.519
-114.947
-118.869
-121.38
-122.884
-123.625
-123.437
442.073
445.898
447.627
449.714
451.308
452.23
452.894
452.697
451.868
450.357
448.297
445.56
442.032
437.729
432.723
426.912
420.199
412.529
403.848
393.951
382.617
369.664
354.811
337.826
318.359
296.644
272.485
245.981
217.213
186.427
154.007
120.629
87.1241
53.894
21.44
-9.54988
-38.1134
-62.792
-82.5178
-97.5649
-108.559
-116.007
-120.299
-121.783
-122.966
-124.31
-126.021
-127.603
-128.35
-128.21
435.404
440.781
442.863
445.821
448.069
449.412
450.61
451.101
450.956
449.884
448.087
445.649
442.524
438.648
434.006
428.656
422.495
415.397
407.29
398.012
387.314
374.926
360.822
344.461
325.495
303.878
279.295
251.74
221.207
188.021
152.651
115.517
77.4167
39.5491
2.33528
-33.6617
-66.8822
-95.293
-117.069
-131.581
-139.014
-140.988
-138.914
-136.142
-134.429
-133.7
-134.142
-134.85
-135.118
-135.022
428.022
434.929
437.34
441.751
444.975
447.094
448.759
449.751
450.26
449.92
448.62
446.494
443.642
440.11
435.812
430.807
425.158
418.735
411.471
403.229
393.754
382.696
369.77
354.409
336.475
315.237
290.718
262.627
230.847
195.348
156.493
115.14
72.2471
28.7694
-14.2935
-56.677
-96.9267
-132.297
-158.668
-173.159
-175.886
-169.521
-161.025
-155.386
-151.226
-148.116
-145.339
-143.264
-142.084
-141.797
419.212
428.612
431.622
436.9
441.224
444.666
447.307
449.033
450.094
450.322
449.605
447.924
445.379
442.099
438.165
433.558
428.35
422.515
415.983
408.682
400.366
390.782
379.471
365.934
349.602
329.736
306.136
278.506
246.173
209.095
167.464
121.812
73.1647
22.9088
-27.7209
-78.0157
-127.93
-173.219
-206.391
-222.982
-219.476
-204.07
-190.042
-178.495
-170.281
-163.078
-156.413
-150.828
-147.425
-146.336
409.335
421.004
424.546
432.064
437.412
441.987
445.816
448.507
450.184
450.894
450.731
449.519
447.313
444.223
440.425
436.027
431.098
425.753
419.943
413.68
406.795
398.948
389.747
378.786
365.036
347.707
325.812
299.069
267.153
229.211
185.038
135.368
81.341
24.1423
-34.7021
-94.4736
-155.129
-212.946
-260.1
-280.281
-267.665
-244.058
-219.891
-201.37
-185.91
-173.456
-163.369
-154.54
-149.021
-146.723
397.02
412.814
416.161
426.112
432.844
438.798
443.983
447.796
450.478
451.941
452.295
451.527
449.592
446.673
442.973
438.643
433.799
428.629
423.2
417.651
411.929
405.745
398.816
390.578
380.225
366.642
348.382
324.396
294.456
257.273
211.683
158.267
98.4947
33.8169
-34.3501
-104.645
-178.05
-250.974
-312.122
-337.59
-317.702
-278.512
-248.903
-225.18
-205.93
-188.796
-172.737
-158.475
-148.434
-143.257
382.276
402.757
406.629
419.001
427.553
435.357
441.946
446.875
450.601
452.979
453.982
453.592
451.845
449.05
445.251
440.827
435.828
430.548
425.216
420.07
415.285
410.713
406.151
401.012
394.717
385.737
372.39
352.604
325.385
290.431
245.612
190.11
125.547
53.806
-23.1301
-104.926
-191.012
-276.641
-350.236
-375.626
-356.725
-307.594
-276.6
-251.776
-230.883
-211.516
-191.352
-171.726
-156.921
-148.693
363.613
391.676
395.636
410.497
420.886
431.174
439.644
445.724
450.388
453.763
455.874
455.938
454.489
451.866
447.933
443.228
437.856
432.163
426.569
421.368
417.09
413.795
410.987
408.904
406.206
402.147
394.599
381.474
359.996
329.463
287.482
231.285
162.114
83.2372
-3.34478
-96.9256
-196.077
-294.927
-363.184
-391.118
-369.649
-330.013
-298.926
-274.036
-253.192
-234.773
-214.067
-191.616
-174.272
-164.877
330.173
372.73
384.944
401.167
413.762
426.095
436.313
443.91
450.438
454.512
456.512
457.76
456.971
454.127
449.786
444.305
438.648
432.51
426.33
420.787
416.298
413.572
413.078
413.74
414.132
415.67
416.521
411.922
398.356
372.595
333.469
278.596
205.835
119.225
23.6809
-78.9161
-183.36
-285.353
-349.258
-373.294
-365.016
-341.677
-315.685
-292.058
-271.543
-254.051
-235.579
-214.836
-198.754
-190.065
322.249
356.03
376.224
392.213
406.21
420.996
434.651
444.817
452.37
458.526
461.311
462.135
461.231
458.018
453.186
446.376
438.964
431.498
423.875
417.122
411.678
408.152
408.132
411.271
416.26
421.953
429.104
434.571
431.025
413.787
379.904
326.475
249.958
152.019
43.9023
-70.1079
-196.04
-296.271
-353.46
-367.039
-362.055
-346.945
-325.975
-303.789
-283.58
-266.668
-250.81
-235.57
-226.641
-223.528
333.282
356.636
374.539
392.144
408.69
423.688
437.189
449.841
457.517
463.104
466.482
466.546
464.255
459.684
453.851
446.423
437.599
428.349
419.182
411.677
406.214
403.708
406.754
412.601
419.871
433.236
449.419
461.411
465.433
453.323
419.34
356.414
261.725
141.505
12.2058
-119.6
-234.381
-314.306
-356.024
-368.298
-365.801
-353.172
-333.948
-313.167
-293.761
-279.188
-267.734
-258.788
-258.204
-263.376
343.216
364.476
382.946
401.143
418.986
434.956
447.489
457.764
464.536
468.821
470.14
468.373
464.471
458.433
450.218
440.834
430.596
420.173
410.245
402.103
398.727
399.811
404.702
414.795
430.992
451.304
475.36
496.553
510.064
503.575
463.518
379.823
252.225
99.2348
-52.4297
-180.143
-276.884
-338.298
-370.423
-382.287
-379.751
-367.064
-348.325
-328.07
-309.278
-297.496
-291.985
-289.53
-296.665
-309.584
348.764
371.2
390.978
412.057
431.6
447.869
459.589
467.658
473.592
475.308
473.549
468.908
461.224
452.084
441.405
429.387
416.598
403.829
392.799
385.732
383.08
387.105
400.522
419.985
441.57
469.482
510.789
552.855
578.663
572.77
512.378
390.762
215.917
37.3028
-117.583
-236.701
-320.778
-373.561
-401.778
-411.133
-405.88
-391.493
-372.912
-352.305
-335.201
-326.802
-327.442
-333.329
-348.413
-367.687
348.842
375.667
400.427
423.052
442.036
459.642
473.08
478.769
481.275
480.634
475.467
467.271
456.641
443.34
428.056
411.93
395.37
379.415
365.367
356.104
356.518
369.515
391.518
412.06
445.287
501.583
568.992
633.689
660.266
625.619
522.339
361.559
154.073
-43.3499
-197.338
-310.407
-388.997
-439.067
-463.815
-469.103
-462.643
-446.273
-423.869
-400.874
-383.273
-376.285
-380.585
-393.778
-417.518
-443.415
349.006
380.285
406.956
432.912
456.121
473.366
483.415
488.522
488.792
484.473
475.447
462.579
447.18
429.879
410.09
388.615
366.308
343.686
324.785
315.457
320.314
335.668
355.957
399.917
463.617
549.178
631.481
686.407
686.97
608.654
456.729
255.856
40.0794
-162.462
-320.171
-430.942
-504.184
-548.457
-568.223
-567.974
-553.847
-531.251
-504.847
-479.503
-461.114
-454.872
-461.053
-478.492
-508.625
-541.547
342.322
380.53
414.443
442.137
466.539
485.591
494.284
495.083
490.148
481.011
468.792
452.623
432.772
408.809
382.057
353.85
323.766
293.202
267.35
252.864
250.555
266.853
316.989
394.199
479.431
561.232
632.269
648.514
589.351
456.884
272.497
60.6996
-153.205
-344.024
-492.77
-597.248
-664.111
-698.725
-709.214
-698.842
-674.85
-644.547
-614.095
-587.454
-568.409
-562.004
-569.498
-590.038
-624.92
-664.532
327.054
375.938
415.731
452.583
481.341
495.775
499.229
494.373
483.436
469.177
451.837
430.258
405.337
375.804
341.727
303.025
259.949
214.899
172.444
141.214
140.34
186.995
272.526
361.197
452.323
515.198
520.091
473.816
362.031
201.386
4.06103
-207.938
-410.654
-584.326
-717.929
-811.993
-863.152
-883.199
-879.623
-856.33
-821.365
-782.798
-747.415
-718.705
-698.646
-691.757
-700.357
-724.394
-764.045
-809.952
283.144
349.068
404.789
454.061
478.05
484.343
481.652
475.406
462.952
446.818
425.016
396.991
363.879
324.139
279.173
227.167
163.28
86.7872
15.7135
-17.5508
8.13585
96.6635
202.924
309.585
362.353
371.318
330.918
236.897
92.1269
-92.3451
-302.518
-514.845
-706.115
-861.09
-974.106
-1046.27
-1080.85
-1085.27
-1067.36
-1032.86
-988.362
-941.518
-900.002
-867.741
-846.368
-839.056
-847.537
-872.384
-913.932
-964.652
125.996
254.059
361.432
418.671
442.869
447.18
442.815
434.575
422.524
404.632
379.241
345.577
304.829
254.295
191.701
113.685
11.0977
-103.638
-190.387
-217.255
-140.182
-8.07958
114.805
171.782
195.732
171.394
92.5034
-29.5301
-198.451
-402.836
-623.315
-832.581
-1008.13
-1140.46
-1228.77
-1279.59
-1296.27
-1286.38
-1256.63
-1213.12
-1160.79
-1106.96
-1059.85
-1023.92
-1000.77
-992.878
-1000.99
-1025.09
-1064.97
-1118.43
-99.9866
105.997
264.671
345.194
375.084
379.112
370.423
357.068
349.578
337.412
311.648
272.083
221.078
158.082
74.1674
-40.1376
-186.744
-341.768
-456.292
-437.858
-299.238
-156.872
-64.7634
-28.7307
-25.8846
-71.5869
-171.615
-316.093
-504.456
-726.315
-951.74
-1148.67
-1300.94
-1407.55
-1473.73
-1500.14
-1499.55
-1476.64
-1436.83
-1385
-1325.62
-1265.95
-1214.15
-1174.62
-1148.87
-1139.23
-1145.91
-1169.01
-1206.96
-1249.48
-180.84
21.8769
157.074
218.586
232.542
222.612
205.332
202.599
215.131