/*--------------------------------*- C++ -*----------------------------------*\
| =========                 |                                                 |
| \\      /  F ield         | OpenFOAM: The Open Source CFD Toolbox           |
|  \\    /   O peration     | Version:  v1912                                 |
|   \\  /    A nd           | Website:  www.openfoam.com                      |
|    \\/     M anipulation  |                                                 |
\*---------------------------------------------------------------------------*/
FoamFile
{
    version     2.0;
    format      ascii;
    class       surfaceScalarField;
    location    "0.42";
    object      phi;
}
// * * * * * * * * * * * * * * * * * * * * * * * * * * * * * * * * * * * * * //

dimensions      [0 3 -1 0 0 0 0];
oriented        oriented;


internalField   nonuniform List<scalar> 
13060
(
0.00563886
0.988569
-0.994208
0.00724125
0.946118
-0.947721
0.00793862
0.900933
-0.90163
0.00837366
0.858301
-0.858736
0.00877998
0.817813
-0.818219
0.00945879
0.779455
-0.780134
0.010405
0.742818
-0.743764
0.0114941
0.707667
-0.708756
0.0126132
0.674228
-0.675347
0.0137322
0.642215
-0.643334
0.0149389
0.611536
-0.612743
0.0161651
0.582169
-0.583395
0.0173021
0.55411
-0.555247
0.0183419
0.527357
-0.528397
0.0194046
0.501817
-0.502879
0.0204176
0.477639
-0.478652
0.0211738
0.454734
-0.45549
0.0217326
0.432867
-0.433426
0.0218666
0.412281
-0.412415
0.0217077
0.392661
-0.392502
0.0214782
0.374002
-0.373773
0.0214481
0.356331
-0.356301
0.0213319
0.339873
-0.339757
0.0209909
0.324382
-0.324041
0.0205331
0.309549
-0.309091
0.0200454
0.295517
-0.295029
0.0194468
0.282424
-0.281826
0.0186269
0.270136
-0.269316
0.0175796
0.258581
-0.257534
0.0164706
0.247582
-0.246473
0.0153915
0.23708
-0.236001
0.0144268
0.227151
-0.226187
0.0134347
0.217829
-0.216837
0.0123455
0.209066
-0.207976
0.0112061
0.200723
-0.199584
0.0100512
0.192811
-0.191656
0.00887721
0.18544
-0.184266
0.00775702
0.178489
-0.177369
0.00674019
0.171836
-0.17082
0.00578748
0.165507
-0.164554
0.0048352
0.159488
-0.158536
0.00386422
0.153798
-0.152827
0.00282573
0.148371
-0.147332
0.00183715
0.143174
-0.142185
0.000905929
0.138138
-0.137207
0.000107574
0.133484
-0.132686
-0.000831422
0.128433
-0.127494
-0.00184836
0.124783
-0.123766
-0.0018086
0.115713
-0.115753
0.0837802
-0.0855888
0.00569612
0.982873
0.00664569
0.945169
0.00689312
0.900686
0.00712292
0.858072
0.00742298
0.817513
0.00797344
0.778904
0.00870791
0.742083
0.00945901
0.706916
0.0103465
0.673341
0.0113021
0.641259
0.0122913
0.610547
0.0133
0.58116
0.0143058
0.553104
0.0152016
0.526461
0.0159466
0.501072
0.0165532
0.477033
0.017026
0.454261
0.0174385
0.432454
0.0179319
0.411788
0.0182442
0.392349
0.0181836
0.374063
0.017885
0.35663
0.0175115
0.340247
0.0169928
0.3249
0.0162549
0.310287
0.0154517
0.29632
0.0146543
0.283222
0.0139422
0.270848
0.0133047
0.259218
0.0126567
0.24823
0.0118628
0.237874
0.0109125
0.228102
0.00987574
0.218866
0.00888355
0.210058
0.00793331
0.201673
0.00695814
0.193786
0.00599456
0.186404
0.0050129
0.179471
0.00399837
0.172851
0.00293518
0.16657
0.0018681
0.160555
0.000889425
0.154777
6.46387e-05
0.149196
-0.000742694
0.143981
-0.00151141
0.138907
-0.002157
0.13413
-0.00275192
0.129028
-0.0029013
0.124932
-0.00235756
0.115169
0.0814227
0.00522681
0.977647
0.00581892
0.944577
0.0059296
0.900575
0.00586884
0.858132
0.00595747
0.817424
0.00641242
0.778449
0.00716937
0.741326
0.00801152
0.706074
0.00889478
0.672457
0.00986639
0.640288
0.0108966
0.609517
0.0118795
0.580177
0.0127127
0.552271
0.0134241
0.52575
0.0140723
0.500423
0.0145933
0.476512
0.0148929
0.453961
0.0147828
0.432564
0.0144387
0.412132
0.0139653
0.392822
0.0136701
0.374358
0.0133417
0.356958
0.012903
0.340685
0.0124493
0.325354
0.0118824
0.310854
0.011189
0.297013
0.010416
0.283995
0.0094425
0.271822
0.00829722
0.260364
0.00711359
0.249414
0.00603665
0.238951
0.00511803
0.22902
0.00425813
0.219726
0.00337169
0.210944
0.00241571
0.202629
0.00144165
0.19476
0.0005027
0.187343
-0.000340971
0.180315
-0.00108561
0.173596
-0.00170331
0.167188
-0.00223786
0.16109
-0.00273506
0.155274
-0.00324768
0.149708
-0.0036749
0.144409
-0.00399384
0.139226
-0.00419643
0.134332
-0.00437318
0.129205
-0.0039315
0.124491
-0.00280315
0.114041
0.0786195
0.004439
0.973208
0.00448418
0.944531
0.00438786
0.900671
0.00441623
0.858104
0.00460741
0.817233
0.00486648
0.77819
0.00526839
0.740924
0.00586141
0.705481
0.00658278
0.671736
0.00732801
0.639542
0.00803096
0.608814
0.00871534
0.579493
0.00937449
0.551612
0.00986565
0.525258
0.0101831
0.500106
0.0103765
0.476318
0.0105824
0.453755
0.010802
0.432345
0.0109113
0.412023
0.0107275
0.393006
0.0102662
0.374819
0.0096965
0.357528
0.00901695
0.341365
0.0082151
0.326156
0.00736643
0.311703
0.00645519
0.297925
0.00558323
0.284867
0.00481614
0.272589
0.00417648
0.261003
0.00361028
0.24998
0.00290309
0.239658
0.00196171
0.229962
0.000973423
0.220714
0.00011033
0.211807
-0.00069528
0.203435
-0.00147608
0.195541
-0.00221049
0.188077
-0.00292754
0.181032
-0.00365789
0.174326
-0.00440105
0.167931
-0.00509587
0.161784
-0.00565433
0.155833
-0.00598945
0.150044
-0.00612385
0.144543
-0.00613427
0.139236
-0.00601134
0.134209
-0.00578419
0.128977
-0.00493159
0.123638
-0.00330267
0.112412
0.0753169
0.00388958
0.969318
0.00355576
0.944865
0.00318262
0.901044
0.00308363
0.858203
0.00317805
0.817139
0.00351088
0.777858
0.00408786
0.740347
0.00471565
0.704853
0.00538786
0.671064
0.00611233
0.638818
0.00678529
0.608141
0.00730348
0.578975
0.00769054
0.551225
0.00799307
0.524956
0.00819494
0.499904
0.0082397
0.476274
0.00798532
0.45401
0.00744039
0.43289
0.00681115
0.412652
0.00633052
0.393487
0.00576216
0.375388
0.00517109
0.358119
0.00465789
0.341878
0.0040281
0.326786
0.00330348
0.312427
0.00252557
0.298702
0.00168575
0.285706
0.000702025
0.273572
-0.000500997
0.262206
-0.00182903
0.251308
-0.0029648
0.240794
-0.00380236
0.230799
-0.00450224
0.221414
-0.0052563
0.212561
-0.00607135
0.20425
-0.00686664
0.196336
-0.0076021
0.188812
-0.00819965
0.181629
-0.00858729
0.174714
-0.00878378
0.168128
-0.00883036
0.161831
-0.00878438
0.155787
-0.00870934
0.149968
-0.00855033
0.144384
-0.00820538
0.138891
-0.00762563
0.133629
-0.00703539
0.128387
-0.00593754
0.12254
-0.00389798
0.110372
0.0714189
0.00333834
0.96598
0.00283385
0.94537
0.00242194
0.901456
0.00222299
0.858402
0.00215201
0.81721
0.0023297
0.77768
0.00264631
0.740031
0.00304769
0.704451
0.00341621
0.670695
0.00371633
0.638518
0.00398752
0.60787
0.00421755
0.578745
0.0043676
0.551075
0.00439089
0.524933
0.00424518
0.50005
0.00412211
0.476397
0.00415254
0.453979
0.00410197
0.43294
0.00374932
0.413005
0.00324885
0.393987
0.00254029
0.376096
0.00164142
0.359018
0.000765458
0.342754
-3.18912e-05
0.327583
-0.0009454
0.313341
-0.00198546
0.299742
-0.00301138
0.286732
-0.00379599
0.274357
-0.0043223
0.262733
-0.004773
0.251759
-0.00540037
0.241422
-0.00628064
0.23168
-0.00723781
0.222371
-0.00809073
0.213414
-0.00876856
0.204928
-0.00931309
0.19688
-0.00973691
0.189236
-0.0101024
0.181995
-0.0104866
0.175098
-0.0108284
0.168469
-0.0110751
0.162078
-0.0111582
0.15587
-0.0109781
0.149788
-0.0105539
0.14396
-0.00997574
0.138313
-0.00924892
0.132903
-0.00842632
0.127565
-0.00696285
0.121077
-0.00443189
0.107841
0.066987
0.00316244
0.962817
0.00232882
0.946203
0.00154449
0.902241
0.00133422
0.858612
0.00152369
0.81702
0.00183509
0.777368
0.0021519
0.739714
0.00251011
0.704093
0.00285082
0.670355
0.0031595
0.638209
0.00332813
0.607701
0.00334667
0.578726
0.00325684
0.551165
0.00311801
0.525071
0.00285351
0.500314
0.0022907
0.476959
0.00151642
0.454753
0.000759511
0.433697
2.84298e-05
0.413736
-0.000668787
0.394684
-0.00131169
0.376739
-0.00201629
0.359723
-0.00284462
0.343582
-0.00369573
0.328434
-0.00449607
0.314141
-0.00525559
0.300502
-0.00609642
0.287573
-0.00717986
0.275441
-0.00847432
0.264027
-0.00979528
0.25308
-0.0108717
0.242498
-0.0116191
0.232427
-0.0121829
0.222935
-0.0127342
0.213966
-0.0133019
0.205496
-0.0138621
0.197441
-0.0143403
0.189714
-0.0146393
0.182294
-0.0146849
0.175143
-0.0145141
0.168299
-0.0141549
0.161718
-0.0136652
0.15538
-0.0131423
0.149266
-0.0125441
0.143361
-0.0117809
0.13755
-0.0108057
0.131927
-0.00970511
0.126464
-0.00798022
0.119352
-0.00496462
0.104826
0.0620224
0.00314662
0.959671
0.00212231
0.947228
0.001373
0.90299
0.00109578
0.858889
0.0010494
0.817066
0.00103245
0.777385
0.00105276
0.739694
0.00103545
0.704111
0.000968255
0.670422
0.000889839
0.638288
0.000787116
0.607804
0.000648592
0.578865
0.000382546
0.551431
-1.59586e-06
0.525456
-0.00036772
0.50068
-0.000608152
0.4772
-0.000896695
0.455042
-0.0013606
0.434161
-0.00206413
0.414439
-0.0029646
0.395585
-0.00396706
0.377742
-0.00498612
0.360742
-0.00596652
0.344563
-0.00695174
0.329419
-0.00802145
0.315211
-0.00918163
0.301662
-0.0102112
0.288603
-0.0109302
0.27616
-0.0113699
0.264467
-0.0117708
0.253481
-0.0123035
0.243031
-0.0130275
0.233151
-0.0138328
0.22374
-0.0145605
0.214693
-0.0151197
0.206055
-0.0154794
0.1978
-0.0156516
0.189887
-0.0157324
0.182374
-0.0158034
0.175214
-0.015816
0.168311
-0.0157261
0.161629
-0.0154738
0.155128
-0.0149561
0.148748
-0.014201
0.142606
-0.0133315
0.136681
-0.012317
0.130913
-0.0110175
0.125165
-0.00896938
0.117304
-0.00542909
0.101285
0.0565933
0.00309315
0.956577
0.00193564
0.948385
0.00105389
0.903872
0.000770456
0.859173
0.000676696
0.81716
0.000642357
0.77742
0.000657808
0.739678
0.000606252
0.704162
0.000543841
0.670484
0.000411138
0.63842
0.000191548
0.608023
-7.31327e-05
0.579129
-0.000401612
0.551759
-0.00083798
0.525892
-0.00155001
0.501392
-0.00246126
0.478111
-0.00337013
0.455951
-0.0042067
0.434998
-0.0050102
0.415243
-0.00578694
0.396362
-0.00657083
0.378525
-0.00749831
0.361669
-0.0084809
0.345545
-0.00941086
0.330349
-0.0102366
0.316037
-0.0110146
0.30244
-0.0119275
0.289516
-0.0130771
0.277309
-0.0143724
0.265762
-0.015609
0.254717
-0.0166516
0.244073
-0.0174023
0.233902
-0.0179221
0.22426
-0.0183486
0.21512
-0.0187055
0.206412
-0.019027
0.198122
-0.0192949
0.190155
-0.0193933
0.182473
-0.0192179
0.175039
-0.0188116
0.167905
-0.0182054
0.161022
-0.0174526
0.154375
-0.016674
0.147969
-0.0158475
0.14178
-0.0148844
0.135717
-0.0137994
0.129828
-0.01224
0.123605
-0.00994241
0.115006
-0.00590068
0.0972437
0.0506926
0.00308839
0.953489
0.002132
0.949342
0.00155222
0.904451
0.000942538
0.859782
0.000436992
0.817666
3.95241e-05
0.777817
-0.000415666
0.740133
-0.000827367
0.704574
-0.00116525
0.670822
-0.00150074
0.638756
-0.00186968
0.608392
-0.00233293
0.579592
-0.00286422
0.55229
-0.003347
0.526375
-0.0037138
0.501759
-0.00411818
0.478515
-0.00462082
0.456454
-0.00535549
0.435732
-0.0062718
0.416159
-0.0073196
0.397409
-0.00833814
0.379544
-0.00934688
0.362678
-0.0103786
0.346577
-0.0114372
0.331408
-0.0126443
0.317244
-0.0138972
0.303693
-0.0149611
0.290579
-0.0156857
0.278034
-0.0161712
0.266248
-0.0166181
0.255164
-0.0171123
0.244567
-0.0177114
0.234501
-0.0183762
0.224925
-0.018984
0.215728
-0.0194763
0.206904
-0.0197548
0.1984
-0.0197915
0.190191
-0.0197085
0.18239
-0.0196159
0.174946
-0.0194638
0.167753
-0.0192113
0.16077
-0.0188193
0.153983
-0.0181786
0.147329
-0.0172928
0.140894
-0.0162857
0.13471
-0.0152294
0.128772
-0.0135008
0.121877
-0.0109092
0.112414
-0.00634713
0.0926816
0.0443455
0.00336705
0.950122
0.00213456
0.950574
0.00124095
0.905345
0.000711939
0.860311
0.000275016
0.818103
-6.54923e-05
0.778158
-0.000499719
0.740568
-0.000886185
0.70496
-0.00128415
0.67122
-0.00167258
0.639144
-0.0020517
0.608771
-0.00245148
0.579992
-0.00297786
0.552817
-0.00371772
0.527115
-0.00462096
0.502662
-0.00554448
0.479439
-0.00638321
0.457292
-0.00711692
0.436466
-0.00785546
0.416898
-0.00871104
0.398265
-0.00968924
0.380522
-0.0107275
0.363716
-0.011776
0.347626
-0.0126581
0.33229
-0.0133922
0.317978
-0.0141629
0.304464
-0.0151729
0.291589
-0.0164192
0.27928
-0.0177299
0.267558
-0.0189369
0.256371
-0.0199918
0.245622
-0.0208163
0.235325
-0.0214057
0.225514
-0.0218521
0.216174
-0.0221522
0.207204
-0.0223704
0.198618
-0.022559
0.19038
-0.0226067
0.182437
-0.0223856
0.174725
-0.0219322
0.167299
-0.0212806
0.160118
-0.0204696
0.153172
-0.0196344
0.146493
-0.0187765
0.140036
-0.0177868
0.133721
-0.0166283
0.127613
-0.0148465
0.120095
-0.0120143
0.109582
-0.00679505
0.0874624
0.0375504
0.00324004
0.946882
0.00231836
0.951496
0.00158042
0.906083
0.000772023
0.86112
9.59701e-05
0.818779
-0.000549463
0.778803
-0.00114298
0.741161
-0.00166508
0.705482
-0.00210133
0.671656
-0.00258372
0.639627
-0.00312104
0.609309
-0.00367201
0.580543
-0.00417618
0.553321
-0.00459644
0.527535
-0.00503149
0.503098
-0.00558062
0.479988
-0.0063272
0.458039
-0.00716773
0.437307
-0.00808346
0.417814
-0.00902958
0.399211
-0.00999806
0.381491
-0.0110154
0.364734
-0.0121587
0.348769
-0.0134324
0.333564
-0.0147725
0.319318
-0.0160517
0.305743
-0.0170539
0.292592
-0.0177927
0.280019
-0.0183932
0.268159
-0.018984
0.256962
-0.0195774
0.246216
-0.0201979
0.235946
-0.0208471
0.226163
-0.0214352
0.216762
-0.0219416
0.207711
-0.0222902
0.198967
-0.0223987
0.190488
-0.0223496
0.182388
-0.0222773
0.174653
-0.0221493
0.167171
-0.0219295
0.159898
-0.0215942
0.152836
-0.0210237
0.145923
-0.0202133
0.139226
-0.019329
0.132836
-0.0181429
0.126427
-0.0163594
0.118311
-0.013193
0.106416
-0.00731841
0.0815878
0.030232
0.00327807
0.943604
0.00211237
0.952661
0.00120631
0.906989
0.000601923
0.861724
9.07485e-05
0.81929
-0.000372284
0.779266
-0.000812123
0.741601
-0.00123525
0.705906
-0.00166161
0.672083
-0.00199013
0.639955
-0.00233159
0.60965
-0.00281224
0.581024
-0.00344766
0.553956
-0.00420814
0.528295
-0.00501325
0.503903
-0.00577989
0.480755
-0.0065035
0.458762
-0.00721873
0.438022
-0.00798939
0.418584
-0.00894342
0.400165
-0.01001
0.382557
-0.0110594
0.365783
-0.012053
0.349763
-0.0129338
0.334445
-0.0137269
0.320111
-0.014644
0.30666
-0.015862
0.29381
-0.0172462
0.281403
-0.0186281
0.269541
-0.0199058
0.25824
-0.0210658
0.247376
-0.022062
0.236942
-0.022856
0.226957
-0.0234924
0.217398
-0.0239573
0.208176
-0.0242737
0.199283
-0.0245462
0.190761
-0.0247235
0.182566
-0.0246618
0.174591
-0.0243727
0.166882
-0.0238839
0.15941
-0.0232149
0.152167
-0.022505
0.145213
-0.0217987
0.138519
-0.0210659
0.132103
-0.0197975
0.125159
-0.0178831
0.116397
-0.0143523
0.102885
-0.00794885
0.0751844
0.0222831
0.00294719
0.940657
0.00230206
0.953307
0.00167872
0.907612
0.000799569
0.862603
9.25389e-05
0.819997
-0.000503144
0.779862
-0.000946674
0.742045
-0.00137072
0.70633
-0.00176205
0.672474
-0.00220404
0.640397
-0.0025662
0.610012
-0.00286201
0.58132
-0.00311084
0.554205
-0.00337196
0.528556
-0.0037866
0.504317
-0.00438052
0.481349
-0.00514734
0.459529
-0.00599546
0.43887
-0.00680183
0.419391
-0.00760356
0.400967
-0.00856359
0.383517
-0.00970023
0.36692
-0.0110515
0.351114
-0.0125505
0.335944
-0.014076
0.321636
-0.0154489
0.308033
-0.016524
0.294885
-0.0174117
0.282291
-0.0182439
0.270373
-0.0190737
0.25907
-0.0198969
0.248199
-0.0207086
0.237754
-0.02153
0.227779
-0.0223015
0.21817
-0.0229954
0.208869
-0.0235965
0.199885
-0.0240058
0.19117
-0.0242187
0.182779
-0.024371
0.174744
-0.0244549
0.166966
-0.0244543
0.159409
-0.024369
0.152082
-0.0240723
0.144916
-0.0235309
0.137978
-0.0229195
0.131492
-0.0215839
0.123823
-0.0194234
0.114236
-0.015094
0.0985558
-0.00760502
0.0676954
0.0146781
0.00347229
0.937184
0.00234851
0.95443
0.00145862
0.908502
0.000867721
0.863194
0.000397691
0.820467
-7.05685e-05
0.78033
-0.000347723
0.742322
-0.000594223
0.706576
-0.000758852
0.672639
-0.000915321
0.640554
-0.00115885
0.610256
-0.00148584
0.581647
-0.00189452
0.554614
-0.00234261
0.529005
-0.00282008
0.504795
-0.00328428
0.481813
-0.00381182
0.460057
-0.00448361
0.439542
-0.00537696
0.420284
-0.00637113
0.401961
-0.00738482
0.384531
-0.00836174
0.367896
-0.00932547
0.352078
-0.0102601
0.336878
-0.0112307
0.322607
-0.0124617
0.309264
-0.014009
0.296432
-0.0156916
0.283973
-0.0173248
0.272006
-0.0188763
0.260621
-0.0203446
0.249667
-0.0216906
0.2391
-0.0228405
0.228929
-0.0238195
0.219149
-0.0246474
0.209697
-0.0253017
0.200539
-0.0258605
0.191729
-0.0263561
0.183274
-0.0266544
0.175042
-0.0267465
0.167058
-0.0266271
0.15929
-0.0262942
0.151749
-0.0259029
0.144525
-0.0255918
0.137667
-0.0249366
0.130837
-0.0235798
0.122466
-0.020936
0.111592
-0.015504
0.0931239
-0.00627518
0.0584665
0.00840294
0.00316106
0.934023
0.00254491
0.955047
0.00204215
0.909005
0.00122134
0.864015
0.000662516
0.821026
0.000197985
0.780795
-0.000157785
0.742677
-0.000379666
0.706798
-0.000497553
0.672757
-0.000582681
0.640639
-0.000558825
0.610232
-0.00047872
0.581567
-0.000417967
0.554553
-0.000445316
0.529032
-0.000667077
0.505017
-0.00111641
0.482262
-0.00165966
0.4606
-0.00220031
0.440082
-0.00274762
0.420831
-0.00352354
0.402737
-0.00458495
0.385592
-0.00589789
0.369209
-0.00745799
0.353638
-0.00920695
0.338627
-0.0109126
0.324313
-0.0124139
0.310765
-0.0137174
0.297736
-0.014939
0.285195
-0.0161734
0.27324
-0.0173936
0.261841
-0.0185776
0.250851
-0.0197432
0.240265
-0.0209648
0.23015
-0.0221699
0.220354
-0.0232842
0.210812
-0.0243238
0.201578
-0.0252438
0.192649
-0.0259524
0.183983
-0.0265518
0.175641
-0.0270355
0.167542
-0.0274237
0.159678
-0.0277366
0.152062
-0.0278592
0.144648
-0.0278839
0.137692
-0.0271914
0.130144
-0.0257508
0.121026
-0.0223831
0.108225
-0.0154447
0.0861855
-0.00461855
0.0476404
0.00378439
0.00404074
0.929983
0.00285794
0.956229
0.0020689
0.909794
0.0013288
0.864755
0.000925163
0.821429
0.000601719
0.781118
0.000561406
0.742718
0.000667279
0.706692
0.000744444
0.672679
0.000790624
0.640593
0.000835601
0.610187
0.000894879
0.581507
0.000921063
0.554527
0.000936638
0.529016
0.000968427
0.504985
0.000866083
0.482365
0.000517585
0.460949
-0.000120077
0.44072
-0.000870895
0.421582
-0.00165745
0.403524
-0.00250439
0.386439
-0.0033802
0.370085
-0.00431584
0.354573
-0.00539919
0.339711
-0.00670064
0.325614
-0.0083179
0.312383
-0.010214
0.299632
-0.0122516
0.287233
-0.0142911
0.27528
-0.016345
0.263895
-0.0183981
0.252904
-0.020327
0.242194
-0.0219899
0.231813
-0.0234631
0.221827
-0.0248319
0.212181
-0.0260578
0.202804
-0.0271243
0.193715
-0.0281214
0.18498
-0.0289567
0.176476
-0.0296357
0.168221
-0.030102
0.160144
-0.0303044
0.152264
-0.0303976
0.144741
-0.0304528
0.137747
-0.0296934
0.129385
-0.0278694
0.119202
-0.0238002
0.104156
-0.01559
0.0779753
-0.00327408
0.0353244
0.000510311
0.00382659
0.926156
0.00305223
0.957004
0.00250906
0.910337
0.00173412
0.86553
0.00121617
0.821947
0.000783449
0.781551
0.000569371
0.742932
0.000635538
0.706626
0.000916249
0.672399
0.00128347
0.640225
0.00172569
0.609745
0.00217784
0.581055
0.00259034
0.554114
0.00288398
0.528723
0.00306122
0.504807
0.00314018
0.482286
0.00315041
0.460938
0.00302187
0.440849
0.00260322
0.422001
0.00186944
0.404257
0.000787208
0.387522
-0.000617029
0.371489
-0.00231252
0.356269
-0.00420926
0.341607
-0.0060754
0.32748
-0.00781133
0.314118
-0.00948287
0.301303
-0.0111708
0.288921
-0.0128902
0.276999
-0.0145678
0.265573
-0.0161981
0.254535
-0.0178851
0.243881
-0.019741
0.233669
-0.0216244
0.223711
-0.0233778
0.213934
-0.0250309
0.204458
-0.026631
0.195315
-0.0280418
0.186391
-0.0293106
0.177745
-0.0303854
0.169296
-0.0313368
0.161096
-0.0322523
0.15318
-0.0331725
0.145661
-0.0333646
0.137939
-0.0326989
0.128719
-0.0305149
0.117018
-0.0253419
0.0989826
-0.0156313
0.0682646
-0.00241996
0.0221131
-0.00190965
0.00460868
0.921547
0.0034045
0.958208
0.0024775
0.911264
0.00157819
0.866429
0.00125224
0.822273
0.00102397
0.781779
0.00102983
0.742926
0.00108539
0.70657
0.0013384
0.672146
0.00173184
0.639832
0.00224441
0.609232
0.00283698
0.580463
0.00346756
0.553484
0.00407854
0.528112
0.00455139
0.504335
0.00479865
0.482038
0.00477706
0.46096
0.00459156
0.441034
0.00431615
0.422276
0.00393208
0.404641
0.00342779
0.388026
0.00270893
0.372208
0.00177265
0.357205
0.000514509
0.342865
-0.0011219
0.329117
-0.00308024
0.316077
-0.00535929
0.303582
-0.00781569
0.291377
-0.0103929
0.279577
-0.0130918
0.268272
-0.0158659
0.257309
-0.0185105
0.246526
-0.0208303
0.235989
-0.0229391
0.225819
-0.0250085
0.216003
-0.026979
0.206428
-0.0287448
0.197081
-0.0304107
0.188057
-0.0319308
0.179265
-0.0333741
0.170739
-0.0346222
0.162344
-0.0355735
0.154131
-0.036535
0.146622
-0.0366581
0.138062
-0.0360123
0.128074
-0.0333443
0.11435
-0.0263415
0.0919798
-0.0133327
0.0552558
-0.00165962
0.01044
-0.00356927
0.00387545
0.917672
0.00319845
0.958885
0.00250392
0.911959
0.00153713
0.867396
0.00079769
0.823013
0.000324574
0.782252
0.000207946
0.743043
0.000495374
0.706283
0.000920694
0.67172
0.00156464
0.639188
0.00233533
0.608461
0.00319983
0.579598
0.00411976
0.552564
0.00509172
0.52714
0.00605561
0.503371
0.00689136
0.481203
0.00750498
0.460346
0.00773925
0.4408
0.00761679
0.422399
0.00707591
0.405182
0.00611841
0.388983
0.00481655
0.37351
0.00323878
0.358783
0.00143838
0.344666
-0.000453978
0.331009
-0.00246532
0.318088
-0.00456705
0.305684
-0.0067607
0.293571
-0.00897526
0.281791
-0.0111736
0.27047
-0.0133839
0.259519
-0.0157348
0.248877
-0.0183338
0.238588
-0.0210261
0.228512
-0.0235622
0.218539
-0.0259853
0.208851
-0.0283954
0.199491
-0.030662
0.190323
-0.032794
0.181397
-0.0346475
0.172593
-0.0363783
0.164074
-0.0382735
0.156026
-0.0396435
0.147992
-0.0401877
0.138606
-0.0394245
0.12731
-0.0355665
0.110492
-0.0261878
0.082601
-0.00981621
0.0388843
-0.00159834
0.00222213
-0.00516761
0.00463283
0.913039
0.00340311
0.960115
0.00219573
0.913166
0.00105831
0.868534
0.00029388
0.823777
-0.000369034
0.782915
-0.000659861
0.743333
-0.000620789
0.706244
-0.000201354
0.671301
0.000531498
0.638455
0.00147681
0.607516
0.0025945
0.57848
0.00375588
0.551402
0.00488112
0.526015
0.00598406
0.502268
0.00696633
0.48022
0.00778444
0.459528
0.0084022
0.440182
0.0088251
0.421976
0.00908043
0.404927
0.00903512
0.389029
0.00858658
0.373959
0.00771743
0.359652
0.00637174
0.346011
0.0045185
0.332862
0.0023128
0.320294
-0.000213371
0.30821
-0.00312677
0.296484
-0.00630744
0.284972
-0.00967168
0.273834
-0.01313
0.262977
-0.0164852
0.252232
-0.0195731
0.241676
-0.0224516
0.23139
-0.0253361
0.221424
-0.0281455
0.211661
-0.0307486
0.202094
-0.0332281
0.192803
-0.0355598
0.183729
-0.0379348
0.174968
-0.0401834
0.166323
-0.0421945
0.158038
-0.0434609
0.149259
-0.0437941
0.138939
-0.0420768
0.125593
-0.0362137
0.104629
-0.0236997
0.070087
-0.00617033
0.021355
-0.000812212
-0.00313599
-0.00597982
0.00374201
0.909297
0.00284311
0.961013
0.00144499
0.914564
4.57758e-05
0.869933
-0.00106717
0.82489
-0.0019815
0.783829
-0.00234209
0.743694
-0.00245186
0.706354
-0.00208485
0.670934
-0.00133434
0.637705
-0.000266323
0.606448
0.00115231
0.577062
0.00280773
0.549747
0.00454357
0.524279
0.00629521
0.500516
0.00796003
0.478556
0.00934392
0.458144
0.0103536
0.439172
0.0108541
0.421475
0.0108366
0.404944
0.0103896
0.389476
0.00953339
0.374815
0.00828658
0.360899
0.00671404
0.347584
0.00486642
0.33471
0.00274281
0.322417
0.000369852
0.310583
-0.00212332
0.298977
-0.00481772
0.287666
-0.00762535
0.276642
-0.0105368
0.265889
-0.0136592
0.255354
-0.0170179
0.245035
-0.0205028
0.234875
-0.023865
0.224786
-0.0271476
0.214943
-0.0304434
0.20539
-0.0336516
0.196011
-0.0367963
0.186874
-0.0395873
0.177759
-0.0422253
0.168961
-0.0447905
0.160603
-0.0464281
0.150897
-0.0469098
0.139421
-0.044213
0.122896
-0.035089
0.0955045
-0.0176904
0.0526884
-0.00341485
0.00707941
-1.88602e-05
-0.00653198
-0.00599868
0.00488469
0.904412
0.00330137
0.962597
0.0013099
0.916556
-0.000656538
0.871899
-0.00238241
0.826616
-0.00384147
0.785289
-0.00468416
0.744537
-0.00509604
0.706766
-0.0048877
0.670726
-0.00418597
0.637003
-0.00310759
0.60537
-0.00168312
0.575637
6.10574e-05
0.548003
0.00196069
0.522379
0.00391803
0.498559
0.00590947
0.476564
0.00781588
0.456238
0.00958428
0.437404
0.0111629
0.419897
0.012377
0.40373
0.0130747
0.388778
0.0131964
0.374693
0.0127206
0.361375
0.0115638
0.348741
0.00974229
0.336531
0.00744359
0.324716
0.00462376
0.313403
0.00127629
0.302325
-0.00235236
0.291295
-0.00623889
0.280528
-0.0103119
0.269962
-0.0143478
0.25939
-0.0182297
0.248917
-0.0219812
0.238627
-0.025739
0.228544
-0.0294179
0.218622
-0.0329167
0.208889
-0.0362978
0.199392
-0.0394695
0.190045
-0.0428044
0.181094
-0.0462143
0.172371
-0.0487694
0.163158
-0.0502399
0.152367
-0.049578
0.138759
-0.0446022
0.11792
-0.0326843
0.0835866
-0.0116406
0.0316447
-0.00249975
-0.00206149
-0.000170151
-0.00886158
-0.00616884
0.00394894
0.900463
0.00274574
0.9638
0.000311569
0.91899
-0.00190464
0.874116
-0.0039678
0.828679
-0.00585766
0.787178
-0.00730174
0.745981
-0.00826572
0.70773
-0.00850107
0.670961
-0.00807041
0.636572
-0.00694341
0.604243
-0.00521987
0.573914
-0.00305121
0.545834
-0.00055385
0.519882
0.00212505
0.49588
0.00473721
0.473952
0.00712151
0.453854
0.0090918
0.435434
0.0105733
0.418415
0.011611
0.402693
0.012161
0.388228
0.0121433
0.374711
0.0115864
0.361932
0.0106044
0.349723
0.00907781
0.338058
0.00699945
0.326794
0.00464162
0.315761
0.00195457
0.305012
-0.00113562
0.294385
-0.00453327
0.283926
-0.00818059
0.273609
-0.0120753
0.263285
-0.0162419
0.253083
-0.0204995
0.242884
-0.0246872
0.232732
-0.028851
0.222786
-0.0330345
0.213072
-0.0371845
0.203542
-0.0414306
0.194292
-0.0453024
0.184965
-0.0488335
0.175902
-0.0515728
0.165897
-0.0533062
0.1541
-0.051816
0.137269
-0.0437658
0.10987
-0.0261309
0.0659518
-0.00684192
0.0123557
-0.00150661
-0.00739679
-3.28259e-06
-0.0103649
-0.00617212
0.00547436
0.894989
0.00325088
0.966023
0.000450508
0.92179
-0.00237659
0.876943
-0.00524034
0.831543
-0.00776423
0.789702
-0.00987773
0.748094
-0.0114548
0.709307
-0.0123054
0.671811
-0.0124557
0.636723
-0.0118536
0.603641
-0.0105268
0.572587
-0.008515
0.543822
-0.00600022
0.517367
-0.00307087
0.492951
0.000231942
0.470649
0.0036028
0.450483
0.00691787
0.432119
0.00991485
0.415418
0.0123983
0.400209
0.0142609
0.386365
0.0154094
0.373562
0.0156715
0.361669
0.0149779
0.350416
0.0135815
0.339455
0.0114709
0.328905
0.00849703
0.318735
0.00499456
0.308514
0.0010062
0.298374
-0.00336033
0.288293
-0.00795962
0.278209
-0.012704
0.268029
-0.0173333
0.257712
-0.0219664
0.247517
-0.026617
0.237382
-0.0311431
0.227312
-0.0355411
0.21747
-0.0398565
0.207858
-0.0438896
0.198325
-0.0482268
0.189303
-0.0524125
0.180088
-0.0553427
0.168827
-0.055952
0.15471
-0.0520748
0.133392
-0.0401577
0.0979532
-0.0171708
0.0429649
-0.00463407
-0.000180999
-0.00127022
-0.0107606
-8.29575e-05
-0.0115522
-0.00625507
0.00403856
0.89095
0.00317003
0.966892
-0.000367737
0.925328
-0.0030885
0.879663
-0.00639485
0.834849
-0.00937579
0.792683
-0.0122165
0.750935
-0.0146087
0.711699
-0.0162015
0.673404
-0.016872
0.637393
-0.016495
0.603264
-0.0152206
0.571312
-0.0130732
0.541675
-0.0102028
0.514497
-0.00689932
0.489647
-0.00338074
0.467131
0.000195212
0.446907
0.00352949
0.428784
0.00652333
0.412424
0.00910496
0.397628
0.0110982
0.384372
0.0124265
0.372234
0.0131904
0.360906
0.0132669
0.35034
0.0123931
0.340328
0.0109299
0.330368
0.00891423
0.32075
0.00612586
0.311303
0.00286598
0.301633
-0.000915002
0.292074
-0.00513792
0.282431
-0.00981352
0.272705
-0.0148435
0.262742
-0.0199361
0.25261
-0.0249342
0.24238
-0.0299342
0.232312
-0.0348868
0.222423
-0.0398104
0.212781
-0.0450761
0.20359
-0.05016
0.194387
-0.0540678
0.183995
-0.0568702
0.17163
-0.0567753
0.154615
-0.0503092
0.126926
-0.0334149
0.0810588
-0.0106262
0.0201762
-0.00339925
-0.00740798
-0.00148234
-0.0126775
-0.000464154
-0.0125704
-0.00671923
0.00368565
0.887265
0.00397427
0.966603
9.70913e-05
0.929205
-0.00274672
0.882507
-0.00678895
0.838892
-0.0104784
0.796373
-0.0140647
0.754521
-0.017309
0.714943
-0.019996
0.676091
-0.0218673
0.639264
-0.0226319
0.604028
-0.0222422
0.570923
-0.0206791
0.540112
-0.0179803
0.511798
-0.0143165
0.485983
-0.00987621
0.46269
-0.00498765
0.442018
5.00337e-05
0.423747
0.0047749
0.407699
0.00897031
0.393432
0.012558
0.380784
0.0151451
0.369647
0.0165387
0.359512
0.0170266
0.349852
0.0165628
0.340792
0.0147913
0.33214
0.0122408
0.323301
0.00887472
0.314669
0.00469427
0.305814
2.83262e-05
0.29674
-0.00511507
0.287575
-0.0103226
0.277912
-0.0156894
0.268109
-0.0211841
0.258105
-0.026786
0.247982
-0.0321708
0.237697
-0.0373784
0.22763
-0.0425676
0.21797
-0.0474758
0.208499
-0.0526142
0.199525
-0.0571064
0.188488
-0.0595068
0.17403
-0.0572349
0.152343
-0.0469382
0.116629
-0.0235739
0.0576946
-0.00718818
0.00379048
-0.00321706
-0.0113791
-0.00175786
-0.0141368
-0.000847418
-0.0134808
-0.00756665
0.00171923
0.885546
0.00307296
0.96525
-0.000490031
0.932768
-0.00331729
0.885334
-0.00720102
0.842775
-0.0111841
0.800356
-0.0154721
0.758809
-0.0194918
0.718963
-0.0229216
0.679521
-0.0255111
0.641854
-0.0269799
0.605497
-0.0271426
0.571085
-0.0260311
0.539
-0.0237933
0.50956
-0.0206148
0.482805
-0.0165944
0.45867
-0.0119789
0.437403
-0.00705705
0.418825
-0.00216421
0.402807
0.00232715
0.388941
0.00626492
0.376847
0.00971708
0.366195
0.0123369
0.356892
0.0137153
0.348474
0.0143881
0.340119
0.0141757
0.332352
0.0126656
0.324811
0.0104275
0.316907
0.00719774
0.309044
0.00316698
0.30077
-0.00155215
0.292294
-0.00704578
0.283406
-0.0128988
0.273962
-0.0189316
0.264137
-0.0249239
0.253974
-0.0308719
0.243645
-0.0365616
0.23332
-0.0422005
0.223609
-0.0480395
0.214338
-0.053625
0.20511
-0.0579983
0.192861
-0.0601107
0.176143
-0.0556731
0.147905
-0.0410012
0.101957
-0.0153627
0.032056
-0.00565923
-0.00591295
-0.00293654
-0.0141018
-0.00157481
-0.0154985
-0.000847373
-0.0142082
-0.00841402
0.00392575
0.88162
0.004655
0.96452
0.000897626
0.936526
-0.0023795
0.888612
-0.00613755
0.846533
-0.0107738
0.804992
-0.0158164
0.763852
-0.0210168
0.724163
-0.0260471
0.684551
-0.0303371
0.646144
-0.0334627
0.608623
-0.0349583
0.572581
-0.0346059
0.538648
-0.032504
0.507458
-0.0289183
0.479219
-0.0240558
0.453808
-0.0181853
0.431532
-0.0116623
0.412302
-0.0048914
0.396036
0.00154777
0.382502
0.00705797
0.371336
0.0114525
0.3618
0.0151071
0.353237
0.0173165
0.346264
0.0175724
0.339863
0.0169761
0.332948
0.0152835
0.326503
0.0122037
0.319987
0.00841696
0.31283
0.00371091
0.305476
-0.00154439
0.297549
-0.00734061
0.289202
-0.0135326
0.280154
-0.020011
0.270616
-0.0266421
0.260605
-0.0330198
0.250023