/*--------------------------------*- C++ -*----------------------------------*\
| =========                 |                                                 |
| \\      /  F ield         | OpenFOAM: The Open Source CFD Toolbox           |
|  \\    /   O peration     | Version:  v1912                                 |
|   \\  /    A nd           | Website:  www.openfoam.com                      |
|    \\/     M anipulation  |                                                 |
\*---------------------------------------------------------------------------*/
FoamFile
{
    version     2.0;
    format      ascii;
    class       volVectorField;
    location    "0.42";
    object      U;
}
// * * * * * * * * * * * * * * * * * * * * * * * * * * * * * * * * * * * * * //

dimensions      [0 1 -1 0 0 0 0];


internalField   nonuniform List<vector> 
6600
(
(39.8413 -0.043808 0)
(40.0985 -0.0513189 8.39435e-20)
(40.1605 0.0447228 5.91518e-18)
(40.2138 0.157512 0)
(40.2588 0.286675 7.36842e-18)
(40.3218 0.410841 2.53935e-19)
(40.3912 0.53129 -2.82265e-19)
(40.4591 0.647178 -3.12411e-19)
(40.5449 0.760751 6.26805e-18)
(40.6225 0.88091 -4.52887e-19)
(40.6995 1.00576 0)
(40.7769 1.1288 -7.61502e-18)
(40.8514 1.25369 0)
(40.917 1.39355 -8.65969e-18)
(40.9819 1.54961 -1.10528e-17)
(41.0682 1.69835 -5.77528e-18)
(41.1457 1.87044 0)
(41.2097 2.07116 0)
(41.2827 2.3009 8.86881e-18)
(41.3483 2.58341 -8.55796e-18)
(41.3768 2.93421 -1.19725e-18)
(41.436 3.2645 -4.03811e-18)
(41.5224 3.61122 -7.40816e-18)
(41.5883 4.00903 1.61756e-18)
(41.6164 4.46198 5.50625e-18)
(41.645 4.94203 0)
(41.6953 5.47123 1.31891e-17)
(41.7683 6.05935 0)
(41.8595 6.74892 -6.43768e-18)
(41.9696 7.54032 -4.14005e-18)
(42.0809 8.37837 -4.24962e-19)
(42.1745 9.25557 -4.87846e-18)
(42.2759 10.1867 -1.87434e-18)
(42.3686 11.2113 3.78112e-18)
(42.4453 12.3313 4.67835e-19)
(42.478 13.5122 4.18457e-18)
(42.511 14.7903 7.25503e-18)
(42.5896 16.1836 7.05112e-18)
(42.7394 17.6742 -4.89191e-18)
(42.9272 19.2555 5.11072e-18)
(43.0969 20.9276 2.50828e-18)
(43.2812 22.7211 0)
(43.4677 24.6436 -4.2975e-19)
(43.6618 26.725 1.05698e-18)
(43.9148 28.9127 0)
(44.2425 31.327 -1.58573e-18)
(44.4494 33.6144 -4.24184e-18)
(45.1362 36.464 0)
(43.7036 38.0689 0)
(33.1037 31.4549 -3.13373e-18)
(39.7389 -0.0439551 4.91008e-18)
(40.1861 -0.0642349 -5.37815e-18)
(40.2356 0.0602633 0)
(40.2947 0.184015 -1.03277e-19)
(40.3579 0.304157 7.40562e-18)
(40.4278 0.427123 2.53227e-19)
(40.5115 0.547082 -7.03142e-22)
(40.5888 0.667752 -3.11645e-19)
(40.6708 0.795748 0)
(40.756 0.916085 -1.18501e-17)
(40.83 1.04577 -4.24498e-19)
(40.9075 1.17547 7.46301e-18)
(40.9815 1.31205 7.749e-18)
(41.0633 1.45092 4.7335e-18)
(41.1327 1.61211 2.15788e-21)
(41.2117 1.7939 7.10726e-19)
(41.2995 1.98975 -6.22146e-18)
(41.3557 2.2082 0)
(41.4189 2.44699 0)
(41.4923 2.6644 8.64025e-18)
(41.5664 2.95528 1.17597e-18)
(41.629 3.30728 -6.43833e-18)
(41.7377 3.68773 -5.6579e-18)
(41.88 4.10821 -6.22979e-18)
(41.9996 4.58846 -5.10843e-18)
(42.1126 5.13177 -1.93594e-18)
(42.2374 5.71738 -2.23236e-18)
(42.3585 6.33826 -2.33207e-18)
(42.4721 6.97856 6.46469e-18)
(42.5428 7.66589 3.60304e-19)
(42.628 8.41034 -7.70102e-18)
(42.7398 9.24594 6.69957e-18)
(42.878 10.1792 4.9336e-18)
(43.0153 11.1945 -5.72343e-18)
(43.1624 12.2657 5.29673e-19)
(43.3781 13.4327 -4.28034e-18)
(43.6659 14.7214 3.6193e-18)
(43.9731 16.102 -2.60061e-18)
(44.2351 17.572 -1.93176e-18)
(44.4815 19.154 -1.89975e-18)
(44.7726 20.866 0)
(45.0815 22.7067 0)
(45.4303 24.6357 1.88274e-19)
(45.8668 26.685 -2.81993e-19)
(46.3404 28.7953 -2.51567e-18)
(46.844 31.1229 1.63779e-18)
(47.3333 33.3748 6.89591e-18)
(48.2666 36.0471 0)
(47.0301 37.1837 -8.15043e-18)
(34.762 30.4356 3.44368e-18)
(39.6589 -0.0257573 -5.08216e-20)
(40.2929 -0.0643039 5.49181e-18)
(40.3449 0.0823988 5.9264e-18)
(40.3944 0.201323 -4.21084e-22)
(40.4515 0.322901 -4.22972e-19)
(40.5196 0.44565 2.5251e-19)
(40.5942 0.560589 0)
(40.6791 0.670114 0)
(40.7612 0.783636 0)
(40.8461 0.901657 6.49282e-18)
(40.9329 1.01622 -4.21209e-19)
(41.0167 1.13365 -7.51291e-18)
(41.0999 1.26386 -3.72084e-18)
(41.1857 1.41281 8.56582e-18)
(41.27 1.56909 5.00727e-18)
(41.3665 1.74523 -6.989e-19)
(41.4842 1.94088 1.3182e-17)
(41.6026 2.17011 -6.77003e-18)
(41.7012 2.45863 -7.47819e-18)
(41.8039 2.79005 0)
(41.9006 3.11408 -4.5428e-18)
(41.9884 3.47019 5.18846e-18)
(42.0952 3.85826 5.72582e-18)
(42.2168 4.28522 6.30849e-18)
(42.3377 4.73899 5.25768e-18)
(42.4274 5.2462 -8.16377e-19)
(42.5656 5.81681 -1.02292e-18)
(42.7292 6.44619 -3.17215e-18)
(42.9293 7.16519 -1.21411e-18)
(43.1559 7.97112 4.11839e-18)
(43.3865 8.84106 1.41434e-18)
(43.6137 9.73829 0)
(43.8512 10.672 -6.22512e-18)
(44.1078 11.6824 1.56501e-18)
(44.3639 12.785 3.32899e-18)
(44.6117 13.9704 4.74774e-18)
(44.8442 15.2394 -2.19927e-18)
(45.1162 16.5914 -1.66813e-18)
(45.4959 18.0308 6.53064e-19)
(45.9694 19.5467 0)
(46.4478 21.1387 -1.73071e-21)
(46.9636 22.8192 0)
(47.5129 24.6097 0)
(48.1058 26.5348 2.57705e-18)
(48.8084 28.5441 1.70386e-18)
(49.6039 30.7586 -3.95289e-18)
(50.3392 32.9123 -4.20574e-18)
(51.3658 35.3087 0)
(50.0573 35.9478 -5.07359e-18)
(36.2087 28.8828 5.57381e-18)
(39.6096 -0.00054175 -4.89335e-18)
(40.4209 -0.0530689 4.16576e-20)
(40.4581 0.13191 -6.08759e-18)
(40.538 0.223588 -6.3845e-18)
(40.6021 0.336724 -7.1605e-18)
(40.6731 0.457026 -3.84528e-18)
(40.7525 0.577587 -2.77193e-19)
(40.8365 0.699155 0)
(40.9267 0.813304 5.38024e-18)
(41.0122 0.931544 6.32943e-18)
(41.0994 1.05707 -4.16757e-19)
(41.1879 1.19047 -4.59226e-19)
(41.2823 1.33023 -3.60476e-18)
(41.3851 1.48196 -6.63385e-19)
(41.4772 1.65766 5.0473e-19)
(41.5771 1.85343 -6.86864e-19)
(41.6727 2.07266 5.9347e-19)
(41.7746 2.29315 7.66979e-18)
(41.8795 2.52249 1.02526e-17)
(42.0119 2.80663 0)
(42.1342 3.12847 1.79319e-19)
(42.2675 3.50201 0)
(42.4523 3.91111 0)
(42.6468 4.37272 -1.4756e-18)
(42.857 4.88416 4.79969e-18)
(43.0567 5.43276 4.53389e-18)
(43.241 6.0296 -9.74202e-19)
(43.4622 6.67412 4.32687e-18)
(43.681 7.33139 0)
(43.8642 8.01604 0)
(44.0717 8.74748 2.37501e-18)
(44.3193 9.5922 0)
(44.6171 10.545 1.65242e-18)
(44.9016 11.559 2.78144e-18)
(45.2392 12.6189 -4.56273e-18)
(45.6535 13.7531 -4.24439e-18)
(46.1639 14.9935 3.322e-18)
(46.7411 16.3271 -1.15517e-18)
(47.2681 17.724 6.04145e-19)
(47.7714 19.2227 7.06271e-19)
(48.3561 20.8223 -1.02267e-18)
(48.9846 22.5337 0)
(49.6947 24.2993 0)
(50.5363 26.1508 -1.74712e-18)
(51.4226 28.0205 -3.77193e-18)
(52.3416 30.0755 -1.18791e-18)
(53.3262 32.1779 -7.12294e-18)
(54.4246 34.2945 7.86995e-18)
(52.971 34.4834 1.13676e-17)
(37.3409 27.059 0)
(39.5585 0.0175688 -1.86987e-20)
(40.5645 -0.0508118 5.26214e-18)
(40.6024 0.161103 5.72785e-18)
(40.6672 0.236322 6.61249e-18)
(40.723 0.352882 0)
(40.7828 0.470087 6.16106e-20)
(40.8525 0.571117 0)
(40.938 0.67549 -3.02014e-19)
(41.0316 0.785112 -1.03823e-17)
(41.1286 0.893612 -6.35601e-18)
(41.2268 1.00811 4.11222e-19)
(41.3261 1.13303 4.52053e-19)
(41.424 1.2775 -5.0309e-19)
(41.5378 1.43758 -4.48803e-18)
(41.6504 1.60824 -1.03992e-17)
(41.7881 1.80252 6.78675e-19)
(41.9531 2.02321 -1.19172e-17)
(42.1156 2.29776 8.1623e-19)
(42.2625 2.60204 -3.68958e-18)
(42.4147 2.92961 -1.98383e-18)
(42.5688 3.26442 5.55575e-18)
(42.691 3.64347 0)
(42.8526 4.04068 0)
(43.0602 4.46522 -2.75269e-18)
(43.2524 4.95002 -3.19484e-18)
(43.459 5.47668 4.03606e-18)
(43.6865 6.05066 -9.16628e-19)
(43.9523 6.68317 0)
(44.2855 7.41356 9.98206e-19)
(44.6485 8.23748 -1.1119e-18)
(45.0209 9.11932 -2.41392e-18)
(45.4058 10.009 -3.19266e-18)
(45.7866 10.9121 1.2204e-18)
(46.2072 11.8837 -1.03896e-18)
(46.6705 12.9551 1.15613e-18)
(47.14 14.0987 0)
(47.5941 15.3069 -9.6901e-19)
(48.064 16.582 -2.18869e-19)
(48.6742 17.9251 1.69751e-19)
(49.4392 19.3218 -2.67807e-19)
(50.2245 20.7826 1.05031e-18)
(51.0645 22.2839 0)
(51.9487 23.8623 0)
(52.8825 25.5452 -3.56559e-18)
(53.9594 27.2823 7.83399e-18)
(55.1411 29.1827 2.11876e-18)
(56.2887 31.1387 4.42112e-18)
(57.2853 32.9471 -9.65792e-18)
(55.3936 32.6934 9.82517e-19)
(38.0154 24.9327 -1.58001e-17)
(39.5194 0.0372957 4.74462e-18)
(40.7033 -0.0510325 -1.03019e-19)
(40.7345 0.177648 -5.83786e-18)
(40.8294 0.225154 3.16369e-18)
(40.8856 0.355041 0)
(40.95 0.463066 4.06168e-18)
(41.0183 0.567343 -1.35405e-19)
(41.1104 0.672283 -4.73362e-18)
(41.2091 0.782887 5.33564e-18)
(41.311 0.904724 0)
(41.4179 1.03643 4.02016e-19)
(41.5329 1.17526 3.07604e-18)
(41.6511 1.32808 -4.37649e-18)
(41.7855 1.49678 5.45464e-19)
(41.9119 1.68741 5.45436e-18)
(42.0296 1.90311 -6.62859e-19)
(42.1645 2.11893 3.7768e-18)
(42.3309 2.33514 -8.02561e-19)
(42.4979 2.5973 8.67217e-19)
(42.6774 2.90168 2.77398e-18)
(42.9074 3.24083 3.55971e-18)
(43.1277 3.63583 1.36833e-20)
(43.347 4.07317 1.23951e-18)
(43.6289 4.53538 4.69025e-18)
(43.9332 5.03464 0)
(44.2239 5.58379 -3.25206e-18)
(44.5143 6.1949 8.08368e-19)
(44.831 6.83549 -5.06858e-20)
(45.1569 7.47618 -1.22481e-19)
(45.4765 8.12391 9.86201e-19)
(45.8171 8.82761 -1.74288e-18)
(46.205 9.64044 2.13071e-18)
(46.6759 10.5626 0)
(47.1584 11.548 0)
(47.6916 12.5802 0)
(48.2919 13.6538 0)
(49.0086 14.7944 1.20368e-19)
(49.8393 16.0128 -5.45255e-19)
(50.6347 17.2922 0)
(51.3759 18.6465 2.77906e-20)
(52.2249 20.0636 -4.85967e-19)
(53.1442 21.5749 -4.75814e-18)
(54.1574 23.1063 2.63834e-18)
(55.321 24.6763 0)
(56.5226 26.2252 3.10873e-18)
(57.7359 27.9243 -1.14786e-17)
(59.0365 29.7991 8.19123e-18)
(59.9598 31.328 6.45863e-18)
(57.5833 30.662 2.3965e-17)
(38.2699 22.5453 -1.80775e-17)
(39.4889 0.0445184 -4.73844e-18)
(40.8423 -0.0636439 -1.02908e-17)
(40.8623 0.190142 8.89181e-20)
(40.9398 0.220859 -3.17424e-18)
(40.9818 0.352063 3.34582e-18)
(41.046 0.426249 -1.20005e-19)
(41.1133 0.520903 4.34836e-18)
(41.2092 0.614651 4.75261e-18)
(41.315 0.717031 5.30472e-18)
(41.4226 0.823505 -1.80158e-19)
(41.537 0.941244 -3.13123e-18)
(41.6584 1.07689 -8.98743e-20)
(41.7862 1.23005 3.9076e-18)
(41.9373 1.397 0)
(42.1096 1.58184 0)
(42.3096 1.79131 3.18225e-19)
(42.5053 2.05389 5.27392e-18)
(42.7188 2.33525 0)
(42.9295 2.63576 4.16506e-19)
(43.1195 2.95833 -4.23504e-18)
(43.3322 3.29594 -3.61956e-18)
(43.5652 3.65489 1.54689e-18)
(43.8022 4.06144 0)
(44.077 4.50792 -2.61529e-18)
(44.3856 4.99037 -6.55223e-19)
(44.7074 5.50141 7.30947e-19)
(45.0452 6.04482 0)
(45.4228 6.66042 0)
(45.8883 7.38034 -1.02592e-18)
(46.3945 8.18792 -6.00712e-19)
(46.9173 9.03386 2.49374e-18)
(47.47 9.88969 -8.09328e-19)
(48.0101 10.7418 -5.59951e-19)
(48.5906 11.6419 1.0224e-18)
(49.2253 12.6231 -6.39586e-19)
(49.9134 13.6755 3.07963e-19)
(50.5893 14.7801 -1.04347e-19)
(51.2492 15.925 6.04626e-19)
(52.0593 17.1143 -2.06036e-18)
(53.081 18.3346 4.90624e-20)
(54.1291 19.5984 -5.457e-19)
(55.2274 20.8606 2.43839e-18)
(56.3621 22.1679 4.19771e-18)
(57.5321 23.5451 -4.66343e-18)
(58.8625 24.9429 3.10179e-18)
(60.3006 26.476 0)
(61.6685 28.1566 5.19798e-18)
(62.3263 29.3713 8.2051e-18)
(59.1333 28.3105 -1.67314e-17)
(37.8949 19.8636 -5.44096e-18)
(39.4428 0.0409343 4.58479e-18)
(40.9659 -0.0772441 5.07495e-18)
(41.0106 0.181641 4.40278e-20)
(41.1005 0.185978 -3.06542e-18)
(41.1441 0.32544 -6.86557e-18)
(41.2161 0.393835 3.86508e-18)
(41.291 0.493823 -8.50181e-18)
(41.3924 0.592793 2.28597e-18)
(41.5072 0.705813 -5.16257e-18)
(41.626 0.824093 -2.95567e-18)
(41.7557 0.952813 6.59587e-18)
(41.8954 1.09167 -3.8948e-18)
(42.0426 1.24287 -3.70234e-18)
(42.1946 1.41775 3.7082e-21)
(42.3405 1.61048 -1.94333e-18)
(42.5079 1.80697 2.43857e-18)
(42.703 2.0082 -2.77738e-18)
(42.9349 2.24316 0)
(43.1999 2.50995 0)
(43.4678 2.82407 0)
(43.757 3.17636 -4.65461e-19)
(44.0522 3.56052 -1.59412e-18)
(44.3696 3.98171 -1.56357e-18)
(44.7403 4.42628 -5.95622e-19)
(45.1463 4.91804 0)
(45.5507 5.4628 0)
(45.9589 6.05565 1.23412e-18)
(46.3854 6.65891 -6.38901e-19)
(46.823 7.24716 -1.44581e-19)
(47.2885 7.85073 1.7381e-19)
(47.7632 8.51143 1.3264e-19)
(48.2822 9.24945 -2.01367e-19)
(48.9111 10.0937 1.35846e-19)
(49.5863 10.9944 -1.69683e-19)
(50.3157 11.9426 1.16877e-19)
(51.0977 12.9182 1.15496e-19)
(51.9842 13.9255 2.59253e-19)
(53.0274 14.9757 6.89824e-19)
(54.0611 16.0766 6.96415e-19)
(54.9953 17.2343 1.61798e-18)
(56.0355 18.4165 -5.26644e-19)
(57.1597 19.6738 3.80711e-18)
(58.3776 20.9294 -4.23489e-18)
(59.7537 22.1802 0)
(61.1494 23.3768 0)
(62.5233 24.6882 0)
(63.9372 26.2442 0)
(64.3953 27.1779 0)
(60.3221 25.7667 -1.01651e-17)
(36.9269 17.0008 1.66785e-17)
(39.3819 0.0415364 -4.59413e-18)
(41.0883 -0.0934116 0)
(41.1189 0.173457 0)
(41.198 0.157551 3.12044e-18)
(41.2317 0.298087 3.35649e-18)
(41.3072 0.347304 -3.87343e-18)
(41.3839 0.441491 4.28258e-18)
(41.4892 0.527623 -2.29327e-18)
(41.6078 0.626805 2.46867e-18)
(41.7319 0.730221 2.96174e-18)
(41.8693 0.849877 -3.0772e-18)
(42.0197 0.980535 3.07254e-18)
(42.194 1.12379 5.52132e-18)
(42.3968 1.28127 0)
(42.6181 1.46058 2.24016e-18)
(42.8433 1.68418 -2.74776e-18)
(43.0826 1.92947 8.07168e-21)
(43.3295 2.18487 -2.7575e-18)
(43.6032 2.46152 3.37948e-18)
(43.8778 2.75778 0)
(44.1821 3.07185 0)
(44.4995 3.41719 1.82731e-18)
(44.8153 3.81074 1.85216e-19)
(45.1831 4.23423 -2.01544e-18)
(45.5999 4.68608 -5.30908e-19)
(46.0499 5.15794 1.64981e-18)
(46.5058 5.66098 -2.29753e-18)
(47.0122 6.24444 1.54028e-18)
(47.6099 6.91882 -8.292e-19)
(48.2468 7.6585 4.84512e-19)
(48.9137 8.42461 -2.36941e-19)
(49.6358 9.21695 7.1194e-19)
(50.3483 9.99785 1.43914e-19)
(51.0874 10.8102 1.83802e-20)
(51.8679 11.6638 0)
(52.7177 12.5624 -5.90612e-19)
(53.5781 13.5103 -6.11171e-19)
(54.4051 14.4919 3.36763e-19)
(55.3468 15.4903 2.23226e-18)
(56.5505 16.4849 -2.08997e-18)
(57.7851 17.5139 -4.94797e-19)
(59.0517 18.5099 -4.48146e-18)
(60.3449 19.5201 1.07943e-17)
(61.646 20.5742 9.76032e-19)
(63.1101 21.6239 1.1652e-18)
(64.6863 22.7829 -4.67013e-18)
(66.0547 24.082 0)
(66.0423 24.7004 8.9032e-18)
(60.6715 22.986 -4.7225e-18)
(35.1534 13.984 0)
(39.3238 0.033155 1.73246e-20)
(41.1945 -0.105129 -1.1771e-22)
(41.2585 0.132951 -2.71492e-18)
(41.3408 0.10374 0)
(41.3709 0.252473 -5.14923e-20)
(41.4615 0.304038 -1.74576e-18)
(41.5494 0.409548 0)
(41.6709 0.502291 2.19316e-18)
(41.8063 0.603471 -2.62771e-18)
(41.9533 0.710592 1.69049e-19)
(42.1141 0.826626 2.91029e-18)
(42.2803 0.953248 -1.49868e-18)
(42.4506 1.09848 -2.03038e-18)
(42.6352 1.25633 0)
(42.8374 1.41688 0)
(43.0689 1.5816 0)
(43.327 1.77335 -2.12854e-18)
(43.6314 1.98878 2.77006e-18)
(43.9613 2.24283 -4.78539e-18)
(44.2953 2.53442 3.81046e-19)
(44.6525 2.8598 -8.29859e-19)
(45.0536 3.19837 -1.38735e-18)
(45.4545 3.57323 3.6898e-18)
(45.9035 3.97153 2.92926e-18)
(46.405 4.42371 0)
(46.925 4.93399 -1.29538e-18)
(47.459 5.48138 2.18072e-18)
(47.9944 6.01861 -1.22795e-18)
(48.5478 6.54115 3.99116e-19)
(49.1537 7.08712 -1.92808e-19)
(49.7734 7.6814 5.97555e-20)
(50.4122 8.31482 8.75088e-21)
(51.1614 9.03866 -2.03209e-19)
(51.9902 9.81039 8.34973e-19)
(52.8851 10.627 5.50465e-19)
(53.8269 11.4672 -1.45333e-18)
(54.8404 12.3111 2.12531e-18)
(56.0232 13.1619 -1.68048e-18)
(57.2444 14.0494 -1.61998e-21)
(58.3086 14.9897 0)
(59.4517 15.9138 3.40002e-18)
(60.6885 16.8988 2.55175e-18)
(62.0148 17.8712 4.16717e-19)
(63.5023 18.8022 -7.75259e-18)
(64.9923 19.6605 -4.27227e-19)
(66.4729 20.6685 -5.75336e-18)
(67.5668 21.667 0)
(67.2707 22.0951 9.73557e-18)
(60.5363 20.1228 -1.63206e-17)
(32.6938 10.9792 0)
(39.2549 0.0168391 0)
(41.2889 -0.128395 0)
(41.34 0.117961 1.41865e-18)
(41.4087 0.0759765 -9.18494e-20)
(41.4376 0.215932 1.65999e-18)
(41.5307 0.24141 1.80669e-18)
(41.6226 0.344099 0)
(41.7488 0.411947 -2.19821e-18)
(41.8845 0.502771 2.35729e-18)
(42.0341 0.595963 0)
(42.2096 0.697897 -4.33419e-18)
(42.4106 0.805047 -5.16989e-20)
(42.6412 0.926823 -2.1222e-19)
(42.8907 1.06628 2.36614e-19)
(43.1471 1.24004 0)
(43.4173 1.43085 0)
(43.6852 1.63165 1.43365e-18)
(44.0004 1.84558 1.07849e-18)
(44.3529 2.0689 9.34134e-20)
(44.7125 2.31135 1.7682e-19)
(45.0822 2.59628 -3.832e-19)
(45.4882 2.90931 2.07459e-19)
(45.9023 3.26036 -1.75844e-18)
(46.3419 3.62479 -7.04937e-19)
(46.856 3.99602 5.53754e-19)
(47.406 4.38814 7.41003e-19)
(47.9759 4.82402 -6.9824e-19)
(48.6065 5.35231 -4.72144e-19)
(49.3231 5.9471 0)
(50.0723 6.58565 0)
(50.8548 7.2432 0)
(51.718 7.93542 -7.62128e-20)
(52.5888 8.61555 -3.04285e-19)
(53.4702 9.31344 -3.23199e-19)
(54.3726 10.0305 7.3577e-19)
(55.3221 10.7574 1.05022e-18)
(56.3058 11.5177 -4.97015e-19)
(57.2567 12.3138 1.82965e-18)
(58.2535 13.1126 -1.11703e-18)
(59.5554 13.8672 -1.67561e-18)
(60.901 14.6534 -2.22068e-18)
(62.2537 15.3812 2.47632e-18)
(63.6251 16.0997 0)
(64.9715 16.8438 4.47592e-18)
(66.4759 17.5782 -2.57476e-18)
(68.1217 18.4715 3.23342e-18)
(69.0126 19.1236 0)
(67.9274 19.3773 -4.96457e-18)
(59.3373 17.1353 2.9638e-18)
(29.2933 8.00898 0)
(39.1693 0.00542496 1.05941e-18)
(41.3734 -0.13246 0)
(41.4607 0.0719034 2.61838e-18)
(41.521 0.0327632 -1.42558e-18)
(41.5674 0.169127 -1.61151e-18)
(41.6689 0.187531 5.45077e-20)
(41.7773 0.295597 -6.06635e-20)
(41.9172 0.357392 0)
(42.0723 0.435278 -2.28964e-18)
(42.2394 0.518437 1.18019e-18)
(42.4181 0.610688 1.41895e-18)
(42.6096 0.714162 -1.64527e-18)
(42.8255 0.82546 8.19065e-19)
(43.067 0.940829 2.25223e-19)
(43.3363 1.05569 -1.23835e-19)
(43.6364 1.19514 0)
(43.9572 1.35077 1.30018e-18)
(44.3062 1.53565 -1.3998e-18)
(44.7079 1.74562 2.44756e-19)
(45.1283 1.97937 -1.06349e-20)
(45.5705 2.22782 -1.82024e-19)
(46.0469 2.50632 0)
(46.5493 2.81349 -1.74192e-19)
(47.077 3.16979 -4.85948e-19)
(47.6677 3.56219 -7.81145e-19)
(48.2924 4.00338 -7.45028e-19)
(48.9251 4.45534 0)
(49.5467 4.88375 2.82339e-19)
(50.203 5.31982 9.59007e-20)
(50.9326 5.78488 -1.31274e-20)
(51.6855 6.28723 -2.94687e-19)
(52.432 6.81109 -2.62512e-19)
(53.2672 7.39618 6.48769e-19)
(54.1913 8.01829 -2.46926e-19)
(55.1856 8.66679 -7.42262e-19)
(56.2396 9.3437 -4.51956e-19)
(57.3392 10.0211 -7.3997e-19)
(58.5873 10.6792 0)
(59.9389 11.3428 -1.48924e-18)
(61.0736 12.0665 3.29509e-18)
(62.2428 12.7414 2.21562e-18)
(63.5101 13.4658 -2.71375e-18)
(64.8576 14.1707 3.83655e-18)
(66.37 14.8073 -1.97795e-18)
(67.875 15.3777 5.5242e-18)
(69.3018 16.1074 1.05005e-19)
(69.7144 16.5478 0)
(68.0294 16.5969 1.03193e-17)
(57.5658 14.1991 -8.87886e-18)
(25.2456 5.3006 -3.40251e-18)
(39.0644 -0.00880837 -1.06029e-18)
(41.4381 -0.144725 1.13867e-18)
(41.5164 0.0614311 -1.28693e-18)
(41.567 0.00298841 1.40505e-18)
(41.6179 0.127385 7.74331e-19)
(41.7131 0.115873 5.37147e-20)
(41.823 0.211508 -2.97335e-20)
(41.9641 0.241673 0)
(42.1169 0.306855 1.05519e-18)
(42.2953 0.368308 -1.79929e-18)
(42.5076 0.427242 0)
(42.7406 0.500984 9.1293e-20)
(42.9999 0.587168 -2.27668e-19)
(43.2806 0.696131 -7.44132e-19)
(43.5742 0.816691 1.03388e-18)
(43.8879 0.948294 -5.28297e-21)
(44.2255 1.09028 -1.37124e-19)
(44.597 1.23872 0)
(45.013 1.3987 6.61963e-19)
(45.4532 1.58799 -6.76138e-19)
(45.9091 1.81434 8.37282e-20)
(46.3938 2.06167 0)
(46.8942 2.32473 0)
(47.4198 2.60355 3.93397e-19)
(48.0195 2.88967 -6.46651e-20)
(48.6736 3.18908 3.45158e-19)
(49.346 3.55337 -9.70653e-20)
(50.086 3.99741 4.15442e-20)
(50.8833 4.48159 -8.3378e-20)
(51.7165 4.99624 2.00877e-20)
(52.5834 5.53351 1.67861e-19)
(53.5421 6.09472 -4.20082e-19)
(54.5312 6.65883 3.27566e-19)
(55.527 7.22473 -3.88609e-19)
(56.5218 7.80411 -5.54889e-19)
(57.5258 8.3718 -6.42896e-19)
(58.5715 8.94452 0)
(59.601 9.54747 1.8637e-18)
(60.5895 10.1635 -7.10762e-19)
(61.912 10.6983 -1.86615e-18)
(63.2982 11.2594 2.32436e-18)
(64.6653 11.7444 -1.13593e-19)
(66.0448 12.1984 -2.022e-18)
(67.3655 12.6691 -6.57954e-20)
(68.8624 13.1681 -2.81444e-18)
(70.2048 13.7245 -6.88012e-18)
(70.4503 13.922 4.00192e-18)
(67.4356 13.8494 0)
(54.3982 11.2506 -6.23255e-18)
(19.9896 2.73637 1.19505e-17)
(38.9554 -0.00756779 -2.00533e-21)
(41.4979 -0.147409 -1.14611e-18)
(41.6037 0.0124224 3.03023e-19)
(41.6569 -0.0479943 1.09027e-20)
(41.7221 0.0734146 -7.74646e-19)
(41.8265 0.0548755 0)
(41.9472 0.139683 0)
(42.0918 0.15807 3.15023e-20)
(42.2552 0.200236 -1.7132e-18)
(42.4251 0.249272 6.15841e-19)
(42.6194 0.2986 -4.08612e-20)
(42.8475 0.347647 8.98516e-20)
(43.1011 0.398321 -5.05187e-19)
(43.3874 0.446753 4.95394e-19)
(43.7066 0.512287 -1.3634e-18)
(44.0528 0.58854 2.36025e-19)
(44.4179 0.691609 -2.49776e-19)
(44.8261 0.816414 -6.49372e-20)
(45.2828 0.955922 7.20542e-19)
(45.7796 1.09287 4.5815e-19)
(46.3051 1.2566 7.62522e-21)
(46.8644 1.45375 7.7578e-20)
(47.4544 1.6889 0)
(48.0621 1.96851 2.60848e-19)
(48.7284 2.28913 8.30174e-21)
(49.443 2.64002 -9.74491e-20)
(50.1751 2.97818 -1.97469e-20)
(50.8765 3.29399 6.99794e-21)
(51.6298 3.62944 0)
(52.4541 3.99195 4.81635e-20)
(53.3043 4.37991 3.16995e-19)
(54.1411 4.79108 3.64616e-19)
(55.0391 5.23268 -2.23334e-19)
(56.0067 5.71418 6.24549e-19)
(57.046 6.20159 -5.6359e-19)
(58.158 6.70927 -3.97724e-19)
(59.306 7.23146 0)
(60.5609 7.73076 -1.23373e-18)
(61.9865 8.1863 -8.74219e-19)
(63.1446 8.71512 9.76602e-19)
(64.2801 9.17544 -1.26397e-18)
(65.5106 9.674 1.57851e-18)
(66.8047 10.1524 0)
(68.274 10.5505 1.23233e-18)
(69.7714 10.9285 0)
(70.6702 11.2642 1.82619e-18)
(70.1902 11.3802 -4.39742e-18)
(66.0553 11.0733 2.54216e-18)
(50.5218 8.39766 0)
(14.0985 0.687804 8.56334e-19)
(38.8342 -0.0386455 -2.46746e-22)
(41.5424 -0.173961 -2.72086e-22)
(41.6375 -0.00446969 -3.12297e-19)
(41.68 -0.0820311 -1.33117e-21)
(41.7363 0.0144145 -1.02498e-20)
(41.8295 -0.0225298 -1.61158e-21)
(41.9487 0.04193 1.79388e-21)
(42.1022 0.0260818 -3.86276e-21)
(42.2676 0.0518643 5.55899e-19)
(42.4629 0.0594968 9.22589e-21)
(42.6823 0.0758592 4.98544e-21)
(42.9264 0.0977182 -1.09492e-20)
(43.2012 0.129155 -3.78269e-19)
(43.4976 0.165202 4.13797e-19)
(43.8252 0.209548 4.63415e-19)
(44.1807 0.258968 -2.36562e-19)
(44.5624 0.310939 2.42111e-19)
(44.9777 0.374131 7.80799e-21)
(45.4431 0.467355 8.04692e-21)
(45.941 0.587413 0)
(46.4727 0.718599 8.12708e-21)
(47.0259 0.866342 3.78805e-21)
(47.6106 1.01898 -4.23453e-21)
(48.2115 1.19235 0)
(48.8871 1.36275 0)
(49.6339 1.57559 -7.56311e-20)
(50.3966 1.85783 0)
(51.2287 2.20335 -7.00803e-21)
(52.0963 2.57822 0)
(53.0043 2.96984 3.63228e-21)
(53.9456 3.38969 -1.61126e-19)
(54.9607 3.82364 1.3596e-20)
(56.0195 4.27368 -3.49122e-19)
(57.0987 4.70341 3.49166e-20)
(58.1554 5.14647 2.58936e-19)
(59.1859 5.58301 4.4683e-19)
(60.2511 5.99895 -1.72275e-20)
(61.3174 6.42383 0)
(62.2527 6.89172 -1.3769e-20)
(63.5287 7.24867 1.71846e-20)
(64.8987 7.63055 0)
(66.2251 7.92532 -2.62079e-20)
(67.5623 8.16587 -1.33806e-19)
(68.8133 8.42983 -1.08025e-18)
(70.2231 8.75648 -2.26029e-20)
(70.7584 8.89335 0)
(69.9774 8.83499 0)
(63.8096 8.35367 3.75972e-19)
(45.1444 5.61721 -3.72781e-19)
(8.16503 -0.786495 8.51743e-19)
(38.6944 -0.0371207 -4.99887e-19)
(41.5739 -0.177171 -5.48243e-19)
(41.6878 -0.0547928 -3.00622e-19)
(41.733 -0.139362 -3.41992e-19)
(41.7977 -0.0468233 -3.48085e-19)
(41.8915 -0.0976396 3.94909e-19)
(42.0046 -0.0490588 0)
(42.1414 -0.0764128 0)
(42.3033 -0.0706129 -2.67479e-19)
(42.4848 -0.0801438 -9.22476e-21)
(42.6927 -0.0938918 2.96199e-19)
(42.9333 -0.111649 2.17938e-20)
(43.207 -0.136067 3.44585e-19)
(43.5143 -0.153138 -3.67938e-19)
(43.8578 -0.171533 -4.31998e-19)
(44.2278 -0.163622 0)
(44.6335 -0.144383 0)
(45.0763 -0.119046 -7.80696e-21)
(45.578 -0.0967669 -8.04584e-21)
(46.1247 -0.0614356 2.47044e-19)
(46.7166 0.011105 -8.12597e-21)
(47.3451 0.116214 0)
(48.0138 0.258546 0)
(48.6933 0.449867 1.94662e-20)
(49.4095 0.675399 5.31256e-20)
(50.1894 0.899062 -1.57211e-20)
(51.004 1.11469 0)
(51.7881 1.32631 -4.26244e-20)
(52.6226 1.55953 0)
(53.52 1.82007 -3.63156e-21)
(54.436 2.09365 0)
(55.3503 2.3799 0)
(56.3074 2.6893 1.06736e-19)
(57.2977 3.05501 1.41031e-19)
(58.3508 3.42043 0)
(59.4883 3.78206 0)
(60.6521 4.17138 1.72223e-20)
(61.88 4.55472 0)
(63.3346 4.84874 1.37639e-20)
(64.4919 5.22782 -5.81085e-19)
(65.555 5.52047 7.24693e-19)
(66.7051 5.84756 1.03923e-19)
(67.8907 6.1699 8.956e-20)
(69.3014 6.42994 -1.16893e-18)
(70.458 6.6053 -7.40787e-19)
(70.5746 6.63728 4.32924e-18)
(68.4412 6.51122 -2.09382e-18)
(60.3801 5.74628 -2.64796e-18)
(38.8335 2.91609 2.17094e-18)
(4.65234 -1.32878 0)
(38.5324 -0.0816484 4.97727e-19)
(41.5884 -0.211846 -5.35057e-19)
(41.6845 -0.0841143 2.9573e-19)
(41.7234 -0.178055 -3.32397e-19)
(41.7721 -0.105113 3.71189e-19)
(41.8567 -0.175828 -4.07564e-19)
(41.9648 -0.150513 -2.75868e-20)
(42.1071 -0.21424 3.07155e-20)
(42.2665 -0.23496 2.34476e-19)
(42.4557 -0.278592 3.65766e-20)
(42.6662 -0.316384 -3.15523e-19)
(42.9066 -0.358856 -6.75188e-19)
(43.1804 -0.40658 3.58592e-19)
(43.4843 -0.450177 3.45416e-19)
(43.8291 -0.503936 1.29458e-18)
(44.2079 -0.558358 -5.28091e-20)
(44.6112 -0.601343 5.89483e-20)
(45.0573 -0.618714 -4.67579e-19)
(45.5482 -0.615254 -5.68754e-20)
(46.0879 -0.615669 -1.83224e-19)
(46.6654 -0.600442 0)
(47.2652 -0.579119 0)
(47.9129 -0.553539 0)
(48.5938 -0.507281 0)
(49.3424 -0.442251 -6.21214e-20)
(50.1584 -0.320769 2.03172e-20)
(50.989 -0.148748 0)
(51.8858 0.0829012 1.51692e-19)
(52.8193 0.337984 0)
(53.8022 0.621241 0)
(54.8255 0.940473 -4.52453e-19)
(55.8815 1.28726 3.4009e-19)
(56.9699 1.63205 -8.36802e-19)
(58.093 1.93705 2.42936e-19)
(59.1954 2.25218 0)
(60.2383 2.59332 0)
(61.3115 2.90201 6.24728e-19)
(62.388 3.19221 -2.18939e-18)
(63.253 3.55297 0)
(64.44 3.78826 -1.77485e-18)
(65.7587 4.06161 2.79468e-18)
(67.0052 4.2353 -3.40834e-18)
(68.285 4.34417 1.98265e-18)
(69.5442 4.51693 -2.48185e-18)
(70.2007 4.63525 6.40795e-18)
(69.8855 4.59618 -6.10025e-18)
(66.8456 4.34131 4.30901e-18)
(55.8493 3.5133 -9.76571e-18)
(30.6909 0.716496 1.18161e-17)
(1.51032 -0.980058 -7.60596e-18)
(38.3433 -0.0685924 9.87299e-19)
(41.5862 -0.229022 2.08007e-21)
(41.6948 -0.122484 0)
(41.7427 -0.235278 6.67887e-19)
(41.7835 -0.17048 1.51674e-18)
(41.8571 -0.248494 -5.07985e-20)
(41.9472 -0.236051 0)
(42.0531 -0.301981 0)
(42.2019 -0.343885 6.52613e-20)
(42.3765 -0.421334 -7.27006e-20)
(42.5695 -0.497856 1.24656e-18)
(42.7967 -0.58796 -6.71016e-19)
(43.067 -0.682489 -7.24495e-19)
(43.3682 -0.783242 7.71437e-19)
(43.7094 -0.878857 -8.22054e-19)
(44.0978 -0.974121 -1.03869e-19)
(44.5149 -1.07522 1.01214e-18)
(44.9787 -1.17762 1.38869e-18)
(45.5005 -1.26827 0)
(46.0865 -1.33216 -4.63232e-19)
(46.7323 -1.37342 -4.4667e-19)
(47.4089 -1.36934 0)
(48.1301 -1.33431 3.58045e-19)
(48.861 -1.26001 0)
(49.6084 -1.16006 0)
(50.4455 -1.06978 -2.02556e-20)
(51.3298 -0.964423 3.03452e-20)
(52.186 -0.866854 2.29984e-19)
(53.0768 -0.72746 0)
(54.0186 -0.581916 0)
(54.9766 -0.42065 1.87587e-19)
(55.9581 -0.26348 2.94243e-19)
(56.988 -0.0563114 1.36421e-18)
(58.0213 0.221553 8.87743e-20)
(59.0782 0.509134 1.03853e-19)
(60.2311 0.759646 -1.90712e-18)
(61.391 1.04956 -1.40043e-19)
(62.5881 1.3583 2.9054e-18)
(64.0522 1.55562 1.86803e-18)
(65.2117 1.84863 1.13538e-18)
(66.1991 2.034 2.91763e-18)
(67.2704 2.2681 2.74895e-19)
(68.3407 2.52897 -3.87812e-18)
(69.5599 2.74755 -2.29462e-18)
(69.9071 2.78584 -7.02773e-18)
(68.9105 2.80008 8.65405e-18)
(63.617 2.68369 -3.95176e-18)
(49.6755 1.85726 0)
(21.2338 -0.541009 0)
(-0.603791 -0.185588 1.48038e-18)
(38.1275 -0.101475 -2.9569e-18)
(41.5739 -0.26416 -1.10174e-18)
(41.6695 -0.155263 1.21096e-18)
(41.7074 -0.264982 -4.14176e-20)
(41.7325 -0.214848 -2.94089e-18)
(41.7999 -0.32016 5.07297e-20)
(41.8792 -0.3269 0)
(41.983 -0.418994 1.94161e-18)
(42.1111 -0.473233 6.52228e-20)
(42.2683 -0.568057 -1.86562e-21)
(42.445 -0.666457 -2.57312e-18)
(42.6528 -0.783456 1.26023e-18)
(42.9017 -0.911038 3.64343e-21)
(43.1885 -1.05332 -6.7138e-19)
(43.5173 -1.20442 0)
(43.8933 -1.35125 0)
(44.3091 -1.48911 -7.86813e-19)
(44.7618 -1.61714 -1.03888e-18)
(45.2577 -1.75077 0)
(45.8021 -1.88069 4.61776e-19)
(46.4029 -2.01117 4.45186e-19)
(47.0428 -2.13435 8.95015e-20)
(47.7477 -2.24115 -1.06893e-19)
(48.5122 -2.3229 -2.14782e-19)
(49.326 -2.36277 -5.43405e-20)
(50.1788 -2.35225 2.99796e-20)
(51.0741 -2.30415 -1.42385e-19)
(52.0345 -2.18718 -2.49162e-19)
(53.0315 -2.05927 4.52957e-19)
(54.0949 -1.8685 -6.88579e-19)
(55.1975 -1.64133 0)
(56.2911 -1.36711 0)
(57.3877 -1.11304 9.52803e-20)
(58.5256 -0.903946 -1.09234e-18)
(59.6686 -0.695432 1.52637e-18)
(60.7315 -0.421232 2.96506e-18)
(61.8289 -0.179064 -1.14632e-18)
(62.9157 0.030684 -3.0295e-18)
(63.7245 0.330569 -3.71932e-18)
(64.8175 0.50187 -2.38716e-18)
(66.0806 0.747042 -2.30496e-19)
(67.2354 0.886632 3.22668e-18)
(68.5571 0.996831 0)
(69.3776 1.09382 2.297e-18)
(69.2423 1.20114 2.8649e-18)
(67.1632 1.29978 3.31171e-18)
(60.1027 1.22682 1.17018e-17)
(41.8644 0.70904 -4.38172e-18)
(10.2644 -0.815293 0)
(-2.22233 0.61097 0)
(37.9054 -0.058014 -1.28241e-20)
(41.5375 -0.273099 2.18291e-18)
(41.6508 -0.17402 -1.2468e-18)
(41.691 -0.309606 2.67946e-18)
(41.6987 -0.25551 1.56166e-18)
(41.7382 -0.354181 -6.55863e-22)
(41.7994 -0.365542 -5.5864e-20)
(41.8711 -0.474876 -1.81737e-18)
(41.9807 -0.552339 -1.33904e-19)
(42.114 -0.672085 -1.42343e-19)
(42.2677 -0.804063 1.25157e-18)
(42.4534 -0.952895 1.71595e-19)
(42.677 -1.12069 1.46525e-18)
(42.9375 -1.3039 1.56657e-18)
(43.2468 -1.50951 -1.99642e-19)
(43.6067 -1.7296 2.22701e-19)
(44.0136 -1.95559 0)
(44.4856 -2.17363 9.38222e-19)
(45.0238 -2.37635 0)
(45.6286 -2.56729 0)
(46.2934 -2.72378 0)
(46.9969 -2.84882 1.78812e-19)
(47.7364 -2.94846 -5.47892e-19)
(48.5006 -3.01819 2.62047e-19)
(49.2976 -3.06049 0)
(50.1924 -3.0998 -3.29197e-20)
(51.1303 -3.12069 -2.12344e-19)
(52.044 -3.12742 -5.4017e-19)
(52.9846 -3.09543 -7.21142e-19)
(53.9498 -3.06544 6.88326e-19)
(54.9468 -3.01203 -9.97284e-19)
(55.9979 -2.95509 6.1885e-19)
(57.1108 -2.83942 1.82071e-18)
(58.2108 -2.63942 0)
(59.2993 -2.40723 1.54629e-18)
(60.4769 -2.22979 -3.97693e-18)
(61.6352 -2.00267 -1.35207e-19)
(62.8188 -1.73671 2.99732e-18)
(64.3025 -1.58299 1.84684e-18)
(65.4957 -1.31044 0)
(66.4427 -1.16993 2.7439e-18)
(67.5239 -0.941568 -3.39827e-18)
(68.5829 -0.642658 7.34457e-18)
(68.931 -0.415384 0)
(68.4601 -0.212875 -1.11913e-17)
(65.0244 0.00179669 3.0554e-18)
(54.1965 0.20974 -3.77431e-18)
(31.6136 -0.2158 -4.25855e-18)
(3.70294 -0.318382 9.37406e-18)
(-3.15188 1.22885 3.15671e-21)
(37.6849 -0.083515 1.9852e-18)
(41.4961 -0.311866 -2.21045e-18)
(41.6122 -0.193455 2.44822e-18)
(41.6388 -0.328548 -5.36962e-18)
(41.6429 -0.2833 3.07075e-18)
(41.6839 -0.397505 -2.0339e-19)
(41.7235 -0.402512 1.91365e-18)
(41.7683 -0.511116 0)
(41.8497 -0.603076 2.15723e-18)