/*--------------------------------*- C++ -*----------------------------------*\
| =========                 |                                                 |
| \\      /  F ield         | OpenFOAM: The Open Source CFD Toolbox           |
|  \\    /   O peration     | Version:  v1912                                 |
|   \\  /    A nd           | Website:  www.openfoam.com                      |
|    \\/     M anipulation  |                                                 |
\*---------------------------------------------------------------------------*/
FoamFile
{
    version     2.0;
    format      ascii;
    class       volScalarField;
    location    "0.23";
    object      p;
}
// * * * * * * * * * * * * * * * * * * * * * * * * * * * * * * * * * * * * * //

dimensions      [0 2 -2 0 0 0 0];


internalField   nonuniform List<scalar> 
6600
(
54.8218
49.8598
47.4539
46.0087
45.3249
45.1701
45.3814
45.9132
46.8182
48.1427
49.9899
52.2991
55.0294
58.2295
61.8782
65.9755
70.5389
75.5662
81.0578
86.9991
93.3584
100.08
107.067
114.332
121.955
129.71
137.429
145.044
152.467
159.556
166.158
172.151
177.313
181.354
184.019
184.979
183.874
180.353
174.048
164.507
151.222
133.674
111.296
83.4032
49.3493
8.39104
-39.6316
-95.7618
-160.906
-226.105
51.2369
45.9192
43.9707
42.1395
41.0472
40.4895
40.3167
40.5584
41.2724
42.3907
43.8906
45.9006
48.3336
51.1976
54.4944
58.2179
62.3761
66.9602
71.9652
77.3749
83.1607
89.2803
95.6665
102.133
108.709
115.453
122.153
128.616
134.815
140.628
145.796
150.155
153.527
155.631
156.224
154.963
151.475
145.408
136.376
123.918
107.549
86.7295
60.9021
29.418
-8.34427
-53.1061
-104.988
-164.374
-231.313
-296.071
46.1858
40.3794
39.2318
37.0801
35.8265
35.0192
34.5166
34.5526
35.0473
36.0054
37.3722
39.1313
41.3153
43.9417
46.9786
50.4196
54.255
58.4776
63.0719
68.0077
73.252
78.7632
84.4588
90.2194
96.0059
101.762
107.361
112.666
117.571
121.915
125.5
128.125
129.574
129.585
127.902
124.217
118.162
109.372
97.4533
81.9612
62.4313
38.3652
9.26653
-25.4261
-66.2756
-113.932
-168.561
-229.442
-295.239
-355.884
40.1209
33.8379
33.271
30.7905
29.4097
28.4111
27.8156
27.684
28.0033
28.7872
30.0201
31.638
33.6528
36.0745
38.8895
42.075
45.6212
49.5115
53.7114
58.181
62.8814
67.7821
72.856
77.8888
82.7686
87.5265
92.0477
96.1223
99.6433
102.488
104.422
105.23
104.695
102.559
98.5599
92.3937
83.7227
72.1883
57.4024
38.9681
16.4815
-10.4858
-42.3533
-79.5628
-122.547
-171.84
-227.453
-288.012
-350.904
-405.067
33.1392
26.3721
25.9715
23.2699
21.8708
20.7721
20.0971
19.8217
19.9842
20.6314
21.6867
23.1302
24.9545
27.1593
29.7195
32.6177
35.8438
39.3592
43.125
47.0957
51.2169
55.4381
59.7029
63.9411
68.0127
71.7941
75.179
78.0379
80.2073
81.5197
81.7964
80.809
78.3266
74.0946
67.8501
59.3122
48.1606
34.0674
16.6998
-4.28015
-29.2085
-58.4123
-92.1939
-130.885
-174.805
-224.265
-279.238
-338.086
-396.563
-442.563
25.416
17.9945
17.4913
14.4865
13.0195
11.8654
11.0948
10.77
10.8286
11.2311
12.0583
13.289
14.8654
16.7833
19.0192
21.5625
24.3855
27.4498
30.7149
34.1287
37.6281
41.1625
44.6966
48.0748
51.1758
53.9532
56.2511
57.8769
58.6983
58.5503
57.2261
54.5261
50.2151
44.0409
35.7625
25.1038
11.7966
-4.42857
-23.8523
-46.7387
-73.3267
-103.844
-138.502
-177.52
-221.125
-269.532
-322.342
-378.041
-431.237
-467.751
16.0276
8.4275
7.71849
4.4696
2.96018
1.67976
0.834815
0.359044
0.237825
0.468828
1.06516
1.95802
3.19905
4.74758
6.57912
8.67222
11.003
13.53
16.2118
18.9998
21.8217
24.6071
27.3101
29.8399
32.0515
33.8201
35.0008
35.4481
34.999
33.4737
30.6829
26.4166
20.4688
12.604
2.59487
-9.77034
-24.7255
-42.4892
-63.2656
-87.2443
-114.594
-145.446
-179.893
-218.058
-260.13
-306.371
-356.36
-407.997
-454.951
-481.637
5.0873
-2.36705
-3.34497
-6.84292
-8.332
-9.81402
-10.8297
-11.4689
-11.8142
-11.8438
-11.5952
-11.0276
-10.2063
-9.12111
-7.79067
-6.23554
-4.4785
-2.56389
-0.52833
1.58011
3.69565
5.75038
7.67773
9.33776
10.5912
11.3803
11.545
10.8733
9.22569
6.4556
2.37088
-3.21687
-10.5146
-19.7131
-30.9897
-44.5464
-60.5512
-79.1567
-100.515
-124.754
-151.956
-182.171
-215.438
-251.816
-291.407
-334.462
-380.985
-428.157
-468.879
-487.057
-7.87123
-14.7162
-15.7511
-19.3766
-20.9232
-22.4577
-23.781
-24.6812
-25.3285
-25.6857
-25.8146
-25.7223
-25.4063
-24.8672
-24.1189
-23.1777
-22.0726
-20.8292
-19.4891
-18.1024
-16.7271
-15.4436
-14.3389
-13.501
-13.051
-13.1548
-13.9799
-15.631
-18.2531
-22.0363
-27.158
-33.778
-42.0442
-52.1339
-64.2035
-78.3762
-94.7827
-113.535
-134.725
-158.414
-184.647
-213.421
-244.684
-278.429
-314.788
-354.067
-396.231
-438.771
-474.727
-487.842
-22.2884
-28.4264
-29.5343
-33.0809
-34.7496
-36.4871
-38.013
-39.2936
-40.2862
-41.1468
-41.7798
-42.2013
-42.4745
-42.5632
-42.4681
-42.2164
-41.8102
-41.2734
-40.6543
-39.9939
-39.3393
-38.7563
-38.3426
-38.2601
-38.6333
-39.5239
-41.0731
-43.4958
-46.9305
-51.4832
-57.3015
-64.5457
-73.3696
-83.8847
-96.191
-110.41
-126.622
-144.879
-165.224
-187.688
-212.264
-238.902
-267.542
-298.117
-330.579
-365.539
-402.275
-439.008
-469.942
-482.433
-37.9244
-43.5592
-44.5537
-47.9931
-49.7061
-51.804
-53.5698
-55.2715
-56.782
-58.1215
-59.3297
-60.4407
-61.3842
-62.1618
-62.7904
-63.2702
-63.5945
-63.7958
-63.9037
-63.9543
-64.0031
-64.1213
-64.4019
-64.9455
-65.855
-67.3106
-69.4743
-72.4106
-76.2453
-81.1747
-87.3392
-94.8336
-103.751
-114.205
-126.284
-140.036
-155.503
-172.713
-191.669
-212.341
-234.696
-258.688
-284.185
-311.006
-339.33
-369.09
-399.079
-427.065
-447.458
-458.971
-54.6961
-59.7366
-60.6776
-63.9663
-65.8579
-68.242
-70.4789
-72.5227
-74.6385
-76.676
-78.604
-80.4212
-82.1077
-83.6699
-85.0783
-86.3237
-87.4163
-88.36
-89.1669
-89.8837
-90.5579
-91.2401
-92.0064
-93.0112
-94.3842
-96.1865
-98.5438
-101.668
-105.692
-110.68
-116.756
-124.046
-132.648
-142.617
-153.986
-166.808
-181.097
-196.835
-213.971
-232.451
-252.208
-273.126
-295.069
-317.842
-341.55
-365.168
-387.24
-404.258
-411.556
-418.536
-72.3621
-76.7874
-77.6225
-80.8256
-82.8423
-85.5856
-88.3196
-91.0361
-93.7324
-96.448
-99.1966
-101.856
-104.426
-106.855
-109.107
-111.185
-113.082
-114.778
-116.285
-117.632
-118.859
-120.024
-121.218
-122.518
-123.996
-125.839
-128.216
-131.183
-134.867
-139.47
-145.094
-151.806
-159.669
-168.74
-179.058
-190.613
-203.374
-217.304
-232.36
-248.417
-265.326
-282.961
-301.077
-319.807
-338.303
-355.398
-369.847
-379.496
-383.413
-385.365
-90.6657
-94.1621
-94.9865
-98.2573
-100.522
-103.751
-106.917
-110.319
-113.835
-117.454
-121.089
-124.684
-128.214
-131.6
-134.798
-137.787
-140.519
-142.984
-145.177
-147.103
-148.79
-150.281
-151.639
-152.981
-154.431
-156.06
-157.992
-160.441
-163.555
-167.411
-172.15
-177.877
-184.665
-192.541
-201.484
-211.481
-222.499
-234.474
-247.292
-260.836
-274.946
-289.329
-303.913
-318.447
-332.227
-344.207
-352.95
-357.457
-363.281
-363.754
-108.875
-111.513
-112.396
-115.686
-118.273
-122.001
-125.926
-130.112
-134.509
-139.066
-143.731
-148.428
-153.05
-157.526
-161.817
-165.808
-169.464
-172.768
-175.676
-178.174
-180.272
-182.004
-183.448
-184.689
-185.763
-186.819
-188.081
-189.645
-191.652
-194.335
-197.829
-202.236
-207.62
-213.995
-221.374
-229.708
-238.897
-248.835
-259.464
-270.658
-282.158
-293.74
-305.184
-316.232
-326.297
-334.453
-339.728
-342.715
-344.987
-346.368
-126.298
-127.941
-129.127
-132.641
-135.73
-140.121
-144.78
-149.865
-155.354
-161.117
-167.023
-172.941
-178.798
-184.52
-190.004
-195.141
-199.845
-204.063
-207.732
-210.817
-213.3
-215.18
-216.488
-217.324
-217.849
-218.172
-218.358
-218.635
-219.271
-220.415
-222.263
-224.974
-228.652
-233.361
-239.042
-245.612
-252.986
-261.079
-269.741
-278.862
-288.262
-297.335
-306.165
-314.474
-321.684
-327.016
-330.02
-333.348
-334.038
-335.171
-142.263
-143.186
-144.617
-148.439
-152.057
-157.287
-162.893
-169.09
-175.759
-182.796
-190.067
-197.481
-204.834
-211.997
-218.857
-225.336
-231.316
-236.626
-241.199
-244.98
-247.914
-249.967
-251.175
-251.605
-251.316
-250.433
-249.266
-247.983
-246.748
-245.882
-245.66
-246.317
-248.026
-250.809
-254.673
-259.548
-265.29
-271.732
-278.828
-286.441
-293.74
-300.653
-307.481
-313.597
-318.294
-321.17
-324.043
-325.607
-326.532
-327.019
-156.09
-156.212
-158.144
-162.483
-166.796
-173.003
-179.676
-187.098
-195.186
-203.751
-212.654
-221.708
-230.768
-239.686
-248.254
-256.328
-263.764
-270.375
-276.055
-280.694
-284.182
-286.447
-287.467
-287.294
-286.106
-284.08
-281.271
-277.932
-274.487
-271.23
-268.515
-266.673
-265.955
-266.589
-268.567
-271.753
-275.994
-281.231
-287.318
-293.304
-298.919
-304.534
-309.542
-313.32
-315.663
-317.323
-318.811
-320.154
-321.144
-321.375
-166.785
-166.751
-169.33
-174.153
-179.318
-186.602
-194.426
-203.302
-212.949
-223.169
-233.832
-244.794
-255.886
-266.854
-277.456
-287.46
-296.659
-304.962
-312.092
-317.876
-322.194
-324.949
-326.067
-325.538
-323.401
-319.773
-315.032
-309.483
-303.384
-297.188
-291.347
-286.395
-282.841
-280.894
-280.664
-282.134
-285.234
-289.702
-294.724
-299.625
-304.625
-309.122
-312.045
-313.349
-313.808
-314.634
-315.477
-316.819
-317.819
-318.103
-173.265
-174.168
-177.542
-183.109
-189.159
-197.681
-206.704
-217.065
-228.411
-240.566
-253.291
-266.406
-279.727
-293.024
-306.027
-318.42
-329.903
-340.253
-349.241
-356.58
-362.085
-365.613
-367.001
-366.114
-363.138
-358.285
-351.577
-343.362
-334.167
-324.473
-314.959
-306.276
-298.994
-293.758
-290.921
-290.533
-292.525
-296.161
-300.814
-306.074
-311.038
-314.237
-315.13
-314.592
-314.065
-313.801
-314.332
-315.325
-316.129
-316.543
-175.599
-178.144
-182.317
-188.81
-195.877
-205.623
-215.916
-227.909
-241.009
-255.064
-269.938
-285.487
-301.398
-317.402
-333.205
-348.446
-362.731
-375.653
-386.987
-396.48
-403.773
-408.618
-410.848
-410.326
-406.873
-400.527
-391.634
-380.695
-368.111
-354.481
-340.419
-326.84
-314.92
-305.469
-299.089
-296.092
-296.582
-300.148
-306.024
-312.391
-317.305
-319.408
-319.294
-318.052
-316.664
-315.643
-314.981
-314.729
-314.855
-315.229
-173.375
-178.34
-183.401
-190.993
-199.3
-210.194
-221.723
-235.339
-250.241
-266.35
-283.556
-301.619
-320.315
-339.351
-358.346
-376.906
-394.582
-410.862
-425.298
-437.557
-447.272
-454.047
-457.613
-457.655
-454.06
-447.014
-436.568
-422.861
-406.481
-388.098
-368.75
-349.563
-331.551
-316.14
-304.816
-298.074
-296.657
-300.741
-308.281
-316.198
-321.572
-323.867
-323.958
-322.435
-320.297
-317.768
-315.305
-313.517
-312.576
-312.428
-167.729
-174.939
-180.784
-189.528
-199.127
-211.153
-223.994
-239.087
-255.64
-273.727
-293.228
-313.935
-335.616
-357.928
-380.491
-402.848
-424.472
-444.793
-463.156
-478.991
-491.971
-501.619
-507.497
-509.255
-506.506
-499.082
-487.009
-470.644
-450.514
-427.43
-402.163
-375.703
-349.861
-326.855
-308.099
-295.179
-290.07
-293.859
-304.329
-315.616
-322.566
-325.676
-325.987
-324.405
-321.342
-317.521
-313.507
-310.171
-308.167
-307.334
-158.831
-168.406
-174.811
-184.809
-195.426
-208.328
-222.518
-238.971
-257.072
-277.043
-298.786
-322.084
-346.774
-372.534
-398.957
-425.52
-451.631
-476.646
-499.828
-520.405
-537.696
-551.2
-560.292
-564.389
-563.102
-556.292
-543.961
-525.836
-502.224
-473.843
-441.769
-407.625
-372.921
-339.567
-310.104
-287.356
-275.999
-278.883
-292.049
-308.373
-317.973
-322.773
-324.157
-322.789
-319.522
-315.353
-310.498
-306.058
-303.074
-301.265
-147.869
-159.243
-165.961
-176.963
-188.392
-201.948
-217.252
-234.841
-254.327
-275.997
-299.782
-325.584
-353.225
-382.439
-412.859
-443.939
-475.023
-505.363
-534.121
-560.349
-583.107
-601.596
-615.219
-623.248
-625.108
-620.228
-608.174
-588.707
-562.165
-529.214
-490.958
-448.306
-402.631
-356.939
-314.205
-278.681
-257.937
-255.926
-270.153
-290.345
-307.691
-316.656
-322.666
-324.543
-322.606
-318.216
-312.55
-306.952
-303.114
-300.738
-135.133
-148.131
-155.155
-166.754
-178.495
-192.601
-208.542
-226.923
-247.496
-270.627
-296.219
-324.283
-354.714
-387.273
-421.675
-457.414
-493.798
-529.975
-564.988
-597.825
-627.258
-652.23
-671.884
-685.286
-691.227
-689.212
-678.957
-660.233
-632.563
-595.976
-551.103
-499.341
-443.272
-384.568
-326.104
-274.435
-240.82
-230.133
-241.967
-265.342
-293.148
-315.332
-328.937
-334.012
-332.691
-327.785
-321.051
-314.106
-308.947
-305.965
-122.705
-135.538
-142.938
-154.692
-166.491
-180.722
-196.891
-215.692
-236.941
-261.017
-287.998
-318.023
-350.971
-386.68
-424.924
-465.297
-507.144
-549.541
-591.397
-631.554
-668.763
-701.659
-728.807
-749.087
-761.392
-764.605
-758.014
-740.966
-713.123
-674.065
-624.549
-566.046
-499.435
-425.212
-348.51
-283.876
-239.874
-220.877
-222.239
-246.259
-279.322
-310.778
-331.231
-340.374
-341.786
-337.249
-330.086
-322.685
-317.564
-315.5
-111.345
-122.299
-130.39
-141.776
-153.284
-167.394
-183.295
-201.984
-223.368
-247.961
-275.887
-307.283
-342.241
-380.66
-422.457
-467.317
-514.629
-563.475
-612.584
-660.644
-706.479
-748.531
-784.943
-814.048
-834.339
-844.11
-842.687
-829.603
-804.048
-766.393
-715.723
-650.544
-571.422
-482.777
-394.124
-317.39
-264.262
-236.093
-233.263
-250.32
-278.461
-307.305
-327.183
-336.317
-337.359
-334.627
-329.769
-324.487
-321.16
-320.311
-105.848
-108.757
-117.882
-128.375
-139.653
-153.253
-168.643
-186.838
-207.874
-232.293
-260.5
-292.706
-329.016
-369.543
-414.324
-463.36
-516.005
-571.264
-627.966
-684.292
-739.405
-791.675
-838.641
-878.078
-908.525
-927.607
-934.307
-927.907
-906.954
-870.709
-818.901
-745.573
-656.576
-558.292
-466.588
-382.641
-319.297
-283.243
-269.797
-274.707
-291.007
-310.672
-325.236
-331.619
-331.243
-327.637
-323.729
-321.062
-320.011
-320.441
-119.316
-98.6711
-106.425
-115.729
-126.689
-139.719
-154.374
-171.748
-192.055
-216.065
-244.042
-276.366
-313.401
-355.394
-402.457
-454.841
-512.221
-573.336
-637.346
-702.126
-767.247
-830.094
-887.8
-938.713
-981.37
-1011.56
-1028.05
-1030.94
-1017.34
-982.447
-931.089
-853.616
-758.17
-661.627
-563.026
-475.24
-408.821
-360.78
-332.616
-320.93
-320.718
-326.213
-330.918
-330.854
-327.08
-321.92
-318.21
-316.991
-317.546
-318.814
54.5091
49.6063
47.2224
45.8033
45.1226
44.9876
45.2212
45.7759
46.7117
48.0747
49.9549
52.2999
55.0645
58.2807
61.9702
66.1263
70.7756
75.9082
81.5201
87.625
94.1807
101.11
108.38
116.168
124.278
132.521
140.893
149.339
157.716
165.905
173.797
181.272
188.111
194.057
198.931
202.447
204.256
204.026
201.427
196.024
187.345
174.913
158.204
136.577
109.452
76.2331
36.3263
-10.5677
-67.3345
-123.832
50.9356
45.684
43.7385
41.9364
40.8211
40.2839
40.1269
40.386
41.098
42.2432
43.7936
45.8088
48.2539
51.1424
54.4829
58.2646
62.5022
67.1817
72.2989
77.8678
83.8686
90.2587
96.9
103.701
110.834
118.145
125.456
132.742
139.919
146.801
153.211
159.027
164.058
168.038
170.758
171.957
171.267
168.338
162.863
154.368
142.364
126.354
105.821
80.1413
48.7285
10.8918
-33.6636
-84.993
-144.859
-203.006
45.9151
40.1479
38.9737
36.8488
35.5916
34.7785
34.2996
34.3609
34.8544
35.8072
37.2134
38.9985
41.1928
43.8445
46.93
50.436
54.3561
58.6832
63.3996
68.5015
73.9757
79.7334
85.7171
91.8711
98.1472
104.465
110.699
116.793
122.638
128.06
132.875
136.937
140.024
141.868
142.272
140.96
137.575
131.778
123.228
111.482
96.0445
76.433
52.158
22.657
-12.6281
-54.3698
-102.721
-157.139
-217.476
-273.646
39.8617
33.6026
33.0162
30.5313
29.194
28.1847
27.61
27.4848
27.8298
28.6344
29.8848
31.5338
33.5912
36.0553
38.9305
42.1877
45.8256
49.8269
54.1552
58.7811
63.7145
68.9476
74.3093
79.6192
84.9819
90.3502
95.5151
100.359
104.816
108.73
111.892
114.111
115.176
114.847
112.872
108.987
102.867
94.1749
82.5527
67.5818
48.8279
25.8491
-1.78202
-34.5268
-72.8747
-117.419
-168.215
-223.965
-283.221
-335.414
32.8473
26.1264
25.768
23.0099
21.6902
20.6121
19.9579
19.6981
19.9116
20.5904
21.6745
23.1621
25.0331
27.2991
29.9313
32.9113
36.2346
39.8709
43.7815
47.9072
52.2137
56.6878
61.3159
65.9517
70.4412
74.7549
78.7951
82.4325
85.509
87.8689
89.3458
89.7485
88.8333
86.3532
82.0779
75.7281
66.9963
55.5638
41.0871
23.2063
1.55851
-24.2179
-54.4745
-89.5803
-129.898
-175.873
-227.483
-283.211
-340.362
-387.057
25.0695
17.7332
17.354
14.3065
12.9039
11.7959
11.0624
10.7841
10.8773
11.34
12.2124
13.4849
15.1244
17.1065
19.4207
22.0489
24.9677
28.1493
31.5583
35.1323
38.8221
42.6461
46.4659
50.1565
53.7131
57.0322
59.9475
62.3292
64.048
64.9283
64.7846
63.422
60.6226
56.1468
49.741
41.146
30.0838
16.2661
-0.601258
-20.8206
-44.6702
-72.4294
-104.357
-140.717
-181.794
-227.893
-278.998
-333.512
-387.328
-427.184
15.6997
8.21872
7.65929
4.41434
2.96911
1.73082
0.93814
0.540934
0.474678
0.746652
1.39245
2.33387
3.62622
5.2423
7.14448
9.31197
11.7289
14.363
17.1788
20.1193
23.1077
26.1107
29.1346
32.0407
34.6493
36.8933
38.681
39.8689
40.2769
39.7222
38.0471
35.0715
30.5634
24.2837
16.0262
5.5479
-7.40532
-23.0735
-41.6973
-63.5013
-88.6983
-117.48
-150.022
-186.521
-227.225
-272.439
-321.81
-373.769
-423.371
-455.276
5.04399
-2.43202
-3.29843
-6.73827
-8.16228
-9.6053
-10.5626
-11.1794
-11.4497
-11.406
-11.1176
-10.5073
-9.62971
-8.49561
-7.10599
-5.48787
-3.66124
-1.66113
0.489568
2.74059
5.02296
7.32503
9.46429
11.3639
13.0311
14.3327
15.0471
15.0422
14.2082
12.3756
9.34863
4.93873
-1.04126
-8.78302
-18.5042
-30.4118
-44.7052
-61.5784
-81.2131
-103.787
-129.441
-158.304
-190.476
-226.071
-265.319
-308.643
-355.682
-404.159
-448.478
-472.293
-7.66356
-14.5598
-15.5718
-19.1059
-20.5832
-22.0625
-23.3366
-24.1852
-24.7885
-25.1141
-25.1945
-25.0582
-24.7007
-24.1184
-23.334
-22.3478
-21.1942
-19.8914
-18.4696
-16.9768
-15.5
-14.0823
-12.7074
-11.5557
-10.7913
-10.5118
-10.8134
-11.8314
-13.7435
-16.7198
-20.8985
-26.4357
-33.5248
-42.3593
-53.0875
-65.8775
-80.8973
-98.2951
-118.212
-140.76
-166.036
-194.109
-225.03
-258.904
-295.893
-336.288
-380.192
-424.655
-463.394
-480.193
-21.9036
-28.0216
-29.1355
-32.6044
-34.2159
-35.893
-37.3691
-38.602
-39.5625
-40.3749
-40.9712
-41.3637
-41.6016
-41.6744
-41.5545
-41.2777
-40.8487
-40.2842
-39.6222
-38.8805
-38.1072
-37.4093
-36.9186
-36.6971
-36.782
-37.2996
-38.4422
-40.3598
-43.158
-46.9733
-51.9684
-58.3089
-66.141
-75.5903
-86.8102
-99.9379
-115.09
-132.372
-151.872
-173.68
-197.849
-224.408
-253.355
-284.71
-318.691
-355.637
-395.166
-435.076
-469.172
-481.9
-37.5569
-42.9543
-43.9107
-47.247
-48.9172
-50.9598
-52.643
-54.2731
-55.7769
-57.091
-58.2693
-59.3519
-60.2725
-61.0348
-61.6652
-62.1497
-62.4783
-62.6908
-62.8068
-62.8608
-62.9083
-62.99
-63.1791
-63.5909
-64.3644
-65.6291
-67.4736
-69.9934
-73.3556
-77.7259
-83.2245
-89.9608
-98.0694
-107.692
-118.92
-131.848
-146.565
-163.139
-181.639
-202.101
-224.548
-248.973
-275.344
-303.636
-333.823
-366.521
-400.654
-434.476
-462.738
-474.886
-54.1217
-58.8565
-59.7666
-62.9303
-64.765
-67.0854
-69.2564
-71.267
-73.3007
-75.2883
-77.1735
-78.9604
-80.6369
-82.196
-83.6178
-84.8862
-86.02
-87.0161
-87.8938
-88.6799
-89.4093
-90.135
-90.9803
-92.0591
-93.42
-95.124
-97.3405
-100.231
-103.899
-108.453
-114.019
-120.738
-128.726
-138.047
-148.794
-161.043
-174.848
-190.246
-207.245
-225.86
-246.084
-267.88
-291.152
-315.745
-341.943
-369.424
-396.849
-421.769
-439.392
-450.528
-71.5205
-75.5937
-76.3964
-79.4338
-81.3989
-84.0461
-86.6767
-89.3219
-91.9671
-94.6151
-97.3129
-99.944
-102.472
-104.901
-107.176
-109.308
-111.273
-113.064
-114.7
-116.206
-117.634
-119.011
-120.377
-121.789
-123.4
-125.38
-127.799
-130.717
-134.284
-138.655
-143.947
-150.25
-157.653
-166.261
-176.128
-187.295
-199.783
-213.59
-228.722
-245.139
-262.783
-281.565
-301.342
-322.049
-343.644
-365.15
-385.11
-400.349
-407.06
-413.832
-89.323
-92.6536
-93.4325
-96.4906
-98.6694
-101.793
-104.891
-108.174
-111.56
-115.09
-118.641
-122.167
-125.673
-129.033
-132.245
-135.287
-138.118
-140.731
-143.121
-145.285
-147.252
-149.057
-150.783
-152.539
-154.342
-156.271
-158.477
-161.121
-164.31
-168.146
-172.736
-178.21
-184.684
-192.199
-200.807
-210.541
-221.405
-233.387
-246.414
-260.417
-275.298
-290.902
-307.048
-323.9
-340.622
-356.141
-369.278
-378.301
-383.187
-385.724
-107.161
-109.539
-110.409
-113.514
-116.012
-119.573
-123.342
-127.393
-131.665
-136.069
-140.62
-145.245
-149.775
-154.204
-158.477
-162.514
-166.284
-169.761
-172.919
-175.746
-178.263
-180.513
-182.527
-184.312
-185.954
-187.626
-189.443
-191.479
-193.865
-196.76
-200.314
-204.634
-209.79
-215.88
-222.957
-231.033
-240.084
-250.044
-260.865
-272.444
-284.623
-297.206
-310.14
-323.156
-335.647
-346.701
-355.085
-359.769
-365.159
-366.523
-124.08
-125.637
-126.704
-130.002
-133.007
-137.193
-141.698
-146.588
-151.866
-157.428
-163.109
-168.851
-174.603
-180.236
-185.646
-190.781
-195.589
-200.001
-203.976
-207.482
-210.496
-213.016
-215.11
-216.874
-218.352
-219.574
-220.638
-221.735
-223.046
-224.712
-226.853
-229.611
-233.154
-237.558
-242.862
-249.083
-256.192
-264.152
-272.847
-282.148
-291.919
-301.964
-312.124
-322.089
-331.288
-338.926
-344.124
-347.698
-349.989
-351.661
-139.727
-140.405
-141.798
-145.373
-148.886
-153.851
-159.197
-165.154
-171.554
-178.285
-185.28
-192.399
-199.508
-206.504
-213.277
-219.703
-225.693
-231.171
-236.074
-240.338
-243.919
-246.813
-249.059
-250.664
-251.643
-252.143
-252.333
-252.309
-252.208
-252.221
-252.584
-253.515
-255.13
-257.552
-260.882
-265.146
-270.327
-276.323
-283.06
-290.472
-298.216
-306.107
-314.036
-321.598
-328.3
-333.392
-336.508
-339.443
-340.579
-341.812
-153.012
-153.367
-155.036
-159.09
-163.238
-169.1
-175.497
-182.555
-190.261
-198.435
-206.868
-215.493
-224.167
-232.743
-241.056
-248.965
-256.346
-263.084
-269.076
-274.234
-278.483
-281.756
-284.059
-285.461
-286.041
-285.836
-284.91
-283.436
-281.666
-279.841
-278.164
-276.834
-276.138
-276.304
-277.45
-279.629
-282.809
-286.995
-292.191
-297.913
-303.828
-310.04
-316.228
-321.852
-326.299
-329.22
-331.949
-333.335
-334.387
-335.031
-163.574
-163.574
-166.053
-170.559
-175.538
-182.319
-189.751
-198.178
-207.284
-216.959
-227.09
-237.453
-247.893
-258.283
-268.406
-278.073
-287.101
-295.35
-302.69
-308.988
-314.125
-318.014
-320.634
-321.993
-322.07
-320.939
-318.83
-315.893
-312.291
-308.23
-304.02
-300.101
-296.776
-294.302
-292.924
-292.783
-293.984
-296.526
-300.124
-304.239
-308.985
-314.103
-318.755
-322.453
-324.996
-326.805
-328.158
-329.287
-330.178
-330.512
-170.292
-170.861
-174.184
-179.369
-185.201
-193.129
-201.738
-211.471
-222.159
-233.561
-245.454
-257.733
-270.212
-282.654
-294.858
-306.597
-317.622
-327.738
-336.76
-344.505
-350.826
-355.585
-358.661
-360.039
-359.808
-358.071
-354.832
-350.228
-344.518
-338.04
-331.183
-324.25
-317.672
-311.996
-307.632
-304.87
-303.783
-304.321
-306.382
-309.642
-313.883
-318.066
-321.235
-323.268
-324.36
-325.288
-325.979
-326.822
-327.524
-327.79
-173.095
-175.124
-179.157
-185.179
-191.932
-200.98
-210.809
-222.023
-234.244
-247.414
-261.301
-275.716
-290.425
-305.227
-319.851
-334.013
-347.442
-359.802
-370.881
-380.473
-388.39
-394.436
-398.454
-400.356
-400.124
-397.742
-393.371
-387.216
-379.48
-370.42
-360.333
-349.819
-339.545
-330.067
-322.025
-315.891
-311.946
-310.418
-311.18
-314.077
-318.015
-321.385
-323.572
-324.495
-324.896
-324.904
-325.146
-325.546
-325.952
-326.19
-171.529
-175.847
-180.674
-187.74
-195.463
-205.772
-216.695
-229.333
-243.268
-258.238
-274.159
-290.838
-308.022
-325.431
-342.758
-359.699
-375.897
-391.013
-404.693
-416.687
-426.697
-434.524
-439.908
-442.659
-442.716
-440.222
-435.167
-427.607
-417.743
-405.87
-392.54
-378.26
-363.564
-349.303
-336.462
-325.991
-318.32
-314.15
-313.478
-316.108
-320.179
-323.628
-325.747
-326.464
-326.209
-325.616
-325.004
-324.644
-324.49
-324.525
-166.32
-172.917
-178.567
-186.833
-195.658
-207.176
-219.192
-233.323
-248.752
-265.517
-283.511
-302.519
-322.31
-342.56
-362.928
-383.027
-402.455
-420.808
-437.676
-452.626
-465.341
-475.501
-482.87
-487.2
-488.303
-486.114
-480.577
-471.875
-460.193
-445.833
-429.059
-410.301
-390.507
-370.722
-352.086
-335.726
-322.682
-314.128
-311.582
-314.409
-319.549
-324.047
-326.673
-327.492
-326.842
-325.586
-324.254
-323.231
-322.632
-322.354
-157.52
-166.882
-173.064
-182.646
-192.627
-205.079
-218.185
-233.66
-250.618
-269.092
-289.043
-310.378
-332.839
-356.073
-379.711
-403.314
-426.381
-448.459
-469.061
-487.654
-503.793
-517.047
-527.143
-533.647
-536.274
-534.939
-529.763
-520.603
-507.568
-490.746
-470.511
-447.547
-422.478
-396.311
-370.163
-345.762
-325.119
-311.361
-306.452
-308.789
-315.072
-320.95
-324.795
-326.131
-325.652
-324.405
-322.928
-321.58
-320.697
-320.017
-146.756
-158.013
-164.74
-175.324
-186.325
-199.422
-213.731
-230.471
-248.595
-268.687
-290.615
-314.152
-339.196
-365.436
-392.502
-419.868
-446.992
-473.29
-498.169
-521.06
-541.36
-558.552
-572.103
-581.657
-586.828
-587.363
-583.09
-574.009
-560.118
-541.557
-518.614
-491.428
-460.529
-427.143
-392.973
-359.515
-329.673
-308.845
-299.467
-299.634
-306.406
-314.28
-319.994
-323.65
-325.072
-324.679
-323.324
-321.864
-320.744
-319.78
-134.217
-147.168
-154.411
-165.699
-177.22
-190.825
-206.069
-223.594
-242.868
-264.396
-287.993
-313.622
-341.157
-370.336
-400.847
-432.159
-463.635
-494.545
-524.215
-552.008
-577.255
-599.204
-617.224
-630.785
-639.287
-642.387
-639.935
-631.857
-618.17
-598.801
-573.503
-542.626
-506.886
-467.162
-424.387
-379.974
-338.838
-309.974
-295.397
-292.838
-298.136
-308.668
-317.396
-323.555
-326.535
-326.848
-325.753
-324.12
-322.877
-321.998
-122.112
-134.759
-142.564
-154.258
-165.873
-179.775
-195.451
-213.459
-233.604
-256.287
-281.311
-308.704
-338.592
-370.606
-404.456
-439.731
-475.726
-511.604
-546.563
-579.862
-610.684
-638.267
-661.747
-680.24
-693.169
-700.094
-700.636
-694.523
-681.832
-662.432
-636.225
-603.182
-563.647
-517.403
-464.122
-410.31
-361.826
-324.276
-301.789
-293.356
-296.236
-306.442
-316.691
-324.184
-327.87
-328.532
-327.622
-326.168
-325.277
-324.895
-111.052
-121.766
-130.313
-141.693
-153.205
-167.097
-182.678
-200.867
-221.407
-244.773
-270.867
-299.513
-331.45
-366.068
-403.146
-442.312
-482.888
-523.936
-564.525
-603.769
-640.867
-674.86
-704.631
-729.212
-747.734
-759.48
-764.037
-761.106
-750.282
-732.337
-707.454
-673.192
-630.283
-576.831
-517.293
-454.83
-401.138
-357.835
-328.526
-313.421
-309.532
-312.713
-318.445
-323.467
-326.236
-326.873
-326.632
-326.122
-325.962
-326.201
-105.673
-108.606
-117.962
-128.585
-139.932
-153.529
-168.802
-186.741
-207.208
-230.541
-257.007
-286.752
-320.052
-356.888
-396.951
-439.854
-484.92
-531.215
-577.708
-623.429
-667.242
-708.301
-745.201
-776.921
-802.285
-820.041
-829.841
-831.653
-824.516
-807.971
-783.952
-748.517
-700.823
-642.025
-577.804
-515.496
-457.624
-409.622
-375.667
-352.647
-339.673
-333.168
-330.616
-329.225
-327.816
-326.556
-325.732
-325.677
-326.032
-326.691
-119.593
-99.0746
-106.843
-116.215
-127.218
-140.329
-155.059
-172.56
-192.549
-215.359
-241.683
-271.882
-306.081
-344.514
-387.033
-432.806
-481.726
-533.142
-585.634
-638.057
-689.004
-737.404
-781.916
-821.413
-854.84
-879.541
-896.03
-904.181
-902.728
-887.206
-860.52
-827.523
-775.761
-713.625
-650.159
-588.287
-529.711
-480.129
-439.526
-407.457
-383.305
-365.772
-352.603
-342.711
-335.14
-329.777
-326.94
-326.299
-326.974
-327.871
-99.6371
-86.0811
-95.0007
-105.316
-116.573
-129.225
-143.66
-160.38
-179.454
-201.899
-228.551
-259.584
-295.07
-335.652
-381.514
-431.462
-485.067
-542.517
-602.794
-663.847
-723.7
-780.346
-833.047
-880.139
-920.728
-953.467
-977.083
-991.16
-993.731
-985.827
-956.335
-906.045
-847.055
-783.576
-716.914
-652.387
-592.754
-539.922
-493.446
-455.066
-423.739
-398.641
-378.132
-361.344
-347.572
-337.119
-330.595
-328.021
-328.859
-330.166
-86.8955
-85.6202
-91.7869
-100.632
-111.681
-124.258
-139.352
-157.3
-178.187
-202.98
-232.406
-266.733
-306.46
-352.59
-405.035
-462.878
-524.85
-589.641
-657.022
-725.554
-792.836
-857.042
-916.371
-970.028
-1014.67
-1048.94
-1071.76
-1080.52
-1074.09
-1046.41
-1002.55
-947.98
-887.425
-823.425
-757.578
-692.841
-633.006
-579.935
-533.068
-491.589
-455.984
-425.636
-400.037
-378.622
-361.029
-347.218
-337.469
-332.512
-331.742
-333.977
-78.5099
-85.1251
-91.4194
-99.9754
-110.923
-124.495
-141.683
-162.429
-186.832
-215.365
-248.671
-288.861
-336.6
-391.123
-451.264
-517.165
-588.32
-663.092
-739.711
-816.258
-890.518
-960.057
-1023.63
-1078.98
-1123.12
-1152.95
-1167.94
-1161.35
-1136.53
-1098.75
-1049.21
-991.484
-929.024
-863.563
-799.268
-736.298
-676.428
-620.314
-569.379
-523.747
-483.514
-448.75
-419.041
-394.161
-373.797
-357.728
-345.909
-338.595
-336.122
-339.489
-72.4799
-80.8539
-88.9368
-98.8269
-110.806
-126.219
-145.13
-168.036
-195.602
-228.717
-268.557
-316.497
-371.728
-434.282
-504.654
-582.508
-666.215
-753.285
-840.374
-924.804
-1005.02
-1077.9
-1143.37
-1199.21
-1239.19
-1257.84
-1253.62
-1233.48
-1199.47
-1154.62
-1100.32
-1039.56
-975.121
-908.784
-841.134
-775.274
-711.643
-652.382
-597.563
-547.995
-503.921
-465.529
-432.798
-405.493
-383.372
-366.04
-353.161
-344.764
-341.626
-344.179
-65.9043
-74.4641
-83.9359
-94.9928
-108.252
-124.99
-145.57
-170.949
-202.735
-240.99
-287.023
-341.001
-404.788
-479.795
-565.358
-658.712
-756.287
-854.652
-951.292
-1043.28
-1129.28
-1208.15
-1273.98
-1322.5
-1345.25
-1346.72
-1330.89
-1300.78
-1258.82
-1207.47
-1148.26
-1083.58
-1015.12
-944.654
-873.716
-804.283
-737.39
-674.309
-616.173
-563.241
-516.036
-474.977
-440.02
-411.037
-387.779
-369.822
-356.711
-348.243
-344.792
-345.812
-57.7088
-66.5127
-76.159
-87.9284
-102.007
-119.516
-142.275
-170.862
-206.338
-249.035
-300.277
-362.613
-440.006
-531.915
-634.722
-743.808
-855.045
-965.312
-1072.08
-1174.22
-1267.81
-1346.75
-1399.45
-1425.74
-1432.15
-1421.4
-1395.54
-1357.08
-1307.76
-1249.91
-1185.41
-1115.61
-1043.04
-968.279
-893.839
-820.873
-750.702
-684.582
-623.456
-567.975
-518.402
-475.493
-439.142
-409.034
-385.172
-367.021
-354.067
-346.018
-342.747
-342.734
-47.5288
-56.0373
-65.2809
-76.2416
-90.8704
-109.741
-134.661
-166.427
-204.03
-251.538
-311.636
-387.533
-481.742
-591.266
-711.475
-837.036
-963.754
-1088.83
-1209.34
-1317.94
-1405.38
-1462.26
-1494.86
-1505.8
-1499.61
-1478.26
-1443.86
-1396.92
-1341.13
-1277.4
-1207.59
-1133.28
-1056.42
-978.212
-900.067
-824
-751.016
-682.298
-618.997
-561.589
-510.638
-466.625