/*--------------------------------*- C++ -*----------------------------------*\
| =========                 |                                                 |
| \\      /  F ield         | OpenFOAM: The Open Source CFD Toolbox           |
|  \\    /   O peration     | Version:  v1912                                 |
|   \\  /    A nd           | Website:  www.openfoam.com                      |
|    \\/     M anipulation  |                                                 |
\*---------------------------------------------------------------------------*/
FoamFile
{
    version     2.0;
    format      ascii;
    class       surfaceScalarField;
    location    "0.23";
    object      phi;
}
// * * * * * * * * * * * * * * * * * * * * * * * * * * * * * * * * * * * * * //

dimensions      [0 3 -1 0 0 0 0];
oriented        oriented;


internalField   nonuniform List<scalar> 
13060
(
0.00536788
0.988882
-0.99425
0.00673886
0.946745
-0.948116
0.00742241
0.901454
-0.902138
0.00777665
0.858875
-0.859229
0.0077176
0.819415
-0.819355
0.0073374
0.782227
-0.781847
0.00669666
0.746626
-0.745985
0.0057545
0.712743
-0.711801
0.00491062
0.67992
-0.679076
0.00437796
0.648485
-0.647953
0.00381767
0.618523
-0.617962
0.00327822
0.589804
-0.589264
0.00291127
0.562158
-0.561791
0.00264554
0.535737
-0.535472
0.0024479
0.510374
-0.510176
0.00230984
0.485937
-0.485799
0.00221836
0.462528
-0.462436
0.00216122
0.440004
-0.439947
0.00213492
0.418442
-0.418416
0.00212678
0.397772
-0.397764
0.00214274
0.378004
-0.37802
0.00223717
0.359042
-0.359137
0.00259869
0.340729
-0.341091
0.00294006
0.323351
-0.323692
0.00307391
0.306992
-0.307126
0.00308425
0.29125
-0.29126
0.00303902
0.276098
-0.276052
0.00288344
0.261773
-0.261617
0.0026584
0.248238
-0.248013
0.00248581
0.235322
-0.235149
0.00233362
0.223067
-0.222915
0.00215365
0.21149
-0.21131
0.00192372
0.200553
-0.200323
0.0016503
0.190136
-0.189863
0.00134855
0.180331
-0.180029
0.000987532
0.171174
-0.170813
0.000592162
0.162578
-0.162183
0.0001885
0.154503
-0.154099
-0.000268948
0.146941
-0.146483
-0.000762479
0.139869
-0.139375
-0.00125152
0.133228
-0.132739
-0.00172664
0.127001
-0.126526
-0.00219501
0.121182
-0.120713
-0.00262868
0.115816
-0.115382
-0.0030245
0.110791
-0.110395
-0.00332565
0.106134
-0.105833
-0.0036707
0.101453
-0.101108
-0.00358805
0.097625
-0.0977077
-0.00254879
0.0886824
-0.0897216
0.0588162
-0.061365
0.00552907
0.983353
0.00573583
0.946538
0.00519667
0.901994
0.00401366
0.860058
0.00293575
0.820492
0.00221377
0.782949
0.00159651
0.747243
0.00124693
0.713093
0.000817599
0.680349
0.000169381
0.649133
-0.00030169
0.618994
-0.000627186
0.590129
-0.00101296
0.562544
-0.00139818
0.536123
-0.00173516
0.510711
-0.00201493
0.486217
-0.00223906
0.462752
-0.00241851
0.440184
-0.00255303
0.418577
-0.00265449
0.397873
-0.00274125
0.378091
-0.00286771
0.359169
-0.00325932
0.341121
-0.00374055
0.323832
-0.00388856
0.30714
-0.00387083
0.291232
-0.00390563
0.276132
-0.00388127
0.261748
-0.003776
0.248133
-0.00377862
0.235324
-0.00388115
0.223169
-0.00399972
0.211609
-0.00411581
0.200669
-0.00426309
0.190283
-0.00444686
0.180515
-0.00463562
0.171363
-0.00483449
0.162777
-0.00505537
0.154724
-0.0052698
0.147155
-0.00547121
0.14007
-0.00566365
0.133421
-0.0058294
0.127167
-0.00594609
0.121298
-0.00599305
0.115863
-0.00595785
0.110755
-0.00582792
0.106004
-0.00570745
0.101333
-0.00493946
0.096857
-0.00325209
0.086995
0.0555641
0.00475724
0.978596
0.00490121
0.946394
0.00415641
0.902738
0.00282122
0.861393
0.00147177
0.821842
-0.000115864
0.784536
-0.00169154
0.748819
-0.00328645
0.714688
-0.00467787
0.681741
-0.00566281
0.650118
-0.0066802
0.620011
-0.00765696
0.591106
-0.00839428
0.563281
-0.00898133
0.53671
-0.00946534
0.511195
-0.00987245
0.486624
-0.0102061
0.463086
-0.0104803
0.440458
-0.0107033
0.4188
-0.0108829
0.398053
-0.0110096
0.378217
-0.0110292
0.359189
-0.0106455
0.340737
-0.0102528
0.323439
-0.0102089
0.307096
-0.0102155
0.291239
-0.0101593
0.276076
-0.0102186
0.261808
-0.0103394
0.248254
-0.0103494
0.235334
-0.0103025
0.223123
-0.0102741
0.21158
-0.0102624
0.200657
-0.0102557
0.190277
-0.0102398
0.180499
-0.0102399
0.171363
-0.0102442
0.162781
-0.0102295
0.154709
-0.0101988
0.147124
-0.0101431
0.140014
-0.0100364
0.133314
-0.00986913
0.126999
-0.00964349
0.121073
-0.00933241
0.115552
-0.00892455
0.110348
-0.00839745
0.105477
-0.00774353
0.100679
-0.00638897
0.0955025
-0.00400658
0.0846126
0.0515575
0.00361073
0.974985
0.00237783
0.947627
0.000185794
0.90493
-0.00188764
0.863467
-0.00381425
0.823768
-0.00535556
0.786078
-0.0066753
0.750139
-0.00780728
0.71582
-0.00888303
0.682817
-0.00997211
0.651207
-0.0108095
0.620848
-0.0115402
0.591837
-0.0123151
0.564056
-0.0130274
0.537422
-0.0136493
0.511817
-0.0141887
0.487164
-0.0146481
0.463545
-0.0150353
0.440845
-0.0153494
0.419114
-0.0155962
0.3983
-0.0157903
0.378411
-0.0159995
0.359398
-0.0165
0.341238
-0.0169974
0.323937
-0.0171027
0.307201
-0.0170805
0.291217
-0.0170895
0.276085
-0.0169706
0.261689
-0.0167522
0.248035
-0.0166141
0.235196
-0.0165259
0.223034
-0.0164189
0.211473
-0.0162807
0.200519
-0.0161332
0.190129
-0.0159928
0.180358
-0.0158149
0.171185
-0.015602
0.162568
-0.0153621
0.154469
-0.0150761
0.146838
-0.0147269
0.139665
-0.0143167
0.132904
-0.0138331
0.126516
-0.013255
0.120495
-0.0125741
0.114871
-0.0117704
0.109544
-0.0107686
0.104475
-0.00969923
0.0996095
-0.00793194
0.0937352
-0.00479068
0.0814713
0.0467669
0.00236166
0.972624
0.00105909
0.94893
-0.00118432
0.907174
-0.00318542
0.865468
-0.00566348
0.826247
-0.00811231
0.788527
-0.0104281
0.752455
-0.012647
0.718038
-0.0145509
0.68472
-0.0161369
0.652794
-0.0176594
0.622371
-0.0190243
0.593201
-0.0201153
0.565147
-0.0210278
0.538335
-0.0218094
0.512598
-0.0224775
0.487832
-0.0230401
0.464108
-0.0235074
0.441313
-0.0238831
0.419489
-0.0241739
0.398591
-0.0243763
0.378614
-0.0244365
0.359458
-0.0240722
0.340873
-0.0236224
0.323487
-0.0235329
0.307112
-0.0235189
0.291203
-0.02338
0.275946
-0.0233025
0.261611
-0.0232908
0.248024
-0.023149
0.235055
-0.0229006
0.222786
-0.022633
0.211206
-0.0223518
0.200238
-0.0220337
0.189811
-0.0216665
0.179991
-0.0212783
0.170797
-0.0208483
0.162138
-0.0203562
0.153977
-0.0198066
0.146289
-0.0191927
0.139051
-0.0184888
0.1322
-0.0176857
0.125713
-0.0167926
0.119601
-0.0157779
0.113856
-0.0146518
0.108418
-0.0134052
0.103229
-0.0118893
0.0980935
-0.00957148
0.0914174
-0.00561753
0.0775174
0.0411493
0.000877445
0.971746
-0.00212038
0.951928
-0.00558168
0.910635
-0.00861675
0.868503
-0.0112516
0.828881
-0.0135555
0.79083
-0.0154993
0.754398
-0.0172271
0.719766
-0.0188834
0.686377
-0.0204491
0.654359
-0.0217166
0.623638
-0.0228532
0.594338
-0.0239715
0.566265
-0.0249875
0.539351
-0.0258868
0.513498
-0.026669
0.488614
-0.0273388
0.464777
-0.0279071
0.441881
-0.0283778
0.41996
-0.0287598
0.398973
-0.0290686
0.378923
-0.0293705
0.35976
-0.0299824
0.341485
-0.0305514
0.324056
-0.030603
0.307163
-0.0304688
0.291068
-0.0303994
0.275877
-0.0301749
0.261387
-0.0297722
0.247621
-0.0294217
0.234704
-0.0290966
0.222461
-0.0287096
0.210819
-0.0282523
0.199781
-0.0277557
0.189314
-0.0272332
0.179469
-0.0266395
0.170203
-0.0259739
0.161473
-0.0252436
0.153246
-0.0244342
0.145479
-0.0235274
0.138144
-0.0225295
0.131202
-0.0214407
0.124624
-0.0202367
0.118397
-0.0189164
0.112536
-0.0174687
0.10697
-0.0160124
0.101773
-0.0140419
0.0961231
-0.0112292
0.0886046
-0.00642045
0.0727087
0.0347289
0.000273181
0.971473
-0.00318787
0.955389
-0.00681089
0.914258
-0.0100726
0.871764
-0.0133432
0.832152
-0.0165114
0.793999
-0.0195685
0.757455
-0.022337
0.722535
-0.0247457
0.688785
-0.0269045
0.656518
-0.029013
0.625747
-0.030855
0.59618
-0.0323441
0.567754
-0.0336085
0.540615
-0.0347009
0.51459
-0.0356439
0.489557
-0.0364406
0.465574
-0.0370986
0.442539
-0.037623
0.420485
-0.0380161
0.399366
-0.0382652
0.379172
-0.038304
0.359799
-0.037892
0.341073
-0.0373469
0.323511
-0.037186
0.307003
-0.0370853
0.290968
-0.0367712
0.275563
-0.0364741
0.26109
-0.0362497
0.247396
-0.0358781
0.234333
-0.0353614
0.221944
-0.0347847
0.210242
-0.0341579
0.199154
-0.0334595
0.188616
-0.0326794
0.178689
-0.0318446
0.169368
-0.0309421
0.16057
-0.0299535
0.152258
-0.0288803
0.144406
-0.0277267
0.136991
-0.0264756
0.129951
-0.0251176
0.123266
-0.0236819
0.116962
-0.022149
0.111003
-0.0205137
0.105335
-0.0187532
0.100012
-0.016416
0.0937858
-0.0129738
0.0851624
-0.00719639
0.0669313
0.0275325
-0.000954039
0.972427
-0.00644542
0.96088
-0.0112711
0.919084
-0.0153649
0.875858
-0.018893
0.83568
-0.0218713
0.796977
-0.0245528
0.760137
-0.0268673
0.724849
-0.0291882
0.691106
-0.0312022
0.658532
-0.032817
0.627362
-0.0343272
0.59769
-0.0358218
0.569249
-0.0371793
0.541973
-0.0383783
0.515789
-0.0394232
0.490602
-0.040318
0.466469
-0.041074
0.443295
-0.0416965
0.421107
-0.0422017
0.399871
-0.0426122
0.379582
-0.04301
0.360196
-0.0436935
0.341757
-0.0442715
0.324089
-0.0442551
0.306986
-0.0439646
0.290677
-0.043734
0.275332
-0.0433461
0.260702
-0.0427108
0.246761
-0.0420566
0.233678
-0.0414042
0.221292
-0.0406652
0.209503
-0.0398211
0.19831
-0.038911
0.187706
-0.0379564
0.177734
-0.0369132
0.168325
-0.0357796
0.159437
-0.0345643
0.151043
-0.0332622
0.143104
-0.0318544
0.135583
-0.0303523
0.128448
-0.0287785
0.121692
-0.0271001
0.115283
-0.0253339
0.109237
-0.0236168
0.103618
-0.0214745
0.0978699
-0.0187519
0.0910631
-0.0145737
0.0809842
-0.00792333
0.0602809
0.0196092
-0.00147991
0.973907
-0.00705283
0.966453
-0.0121036
0.924135
-0.0164973
0.880252
-0.0207543
0.839937
-0.0248099
0.801033
-0.0285171
0.763844
-0.0319264
0.728259
-0.0348436
0.694023
-0.0375385
0.661227
-0.0402303
0.630054
-0.0425328
0.599993
-0.0444505
0.571166
-0.0461136
0.543636
-0.0475627
0.517238
-0.0488148
0.491854
-0.049878
0.467532
-0.0507529
0.44417
-0.0514446
0.421799
-0.0519555
0.400382
-0.0522636
0.37989
-0.0522856
0.360218
-0.0518008
0.341272
-0.0511346
0.323423
-0.050814
0.306666
-0.0505659
0.290429
-0.0500318
0.274798
-0.0494319
0.260102
-0.0489168
0.246246
-0.0482593
0.233021
-0.0474114
0.220444
-0.0464632
0.208555
-0.0454446
0.197291
-0.0443375
0.186599
-0.0431269
0.176523
-0.0418435
0.167041
-0.0404844
0.158078
-0.0390392
0.149597
-0.0375045
0.141569
-0.0358948
0.133973
-0.0342094
0.126763
-0.0324346
0.119918
-0.0306305
0.113479
-0.0287951
0.107401
-0.0268473
0.10167
-0.0243002
0.0953228
-0.0210033
0.0877662
-0.0157515
0.0757325
-0.00770169
0.052231
0.0119075
-0.00294439
0.976851
-0.0101187
0.973627
-0.0159787
0.929995
-0.0213487
0.885622
-0.0258619
0.84445
-0.0295327
0.804704
-0.0327916
0.767103
-0.0358456
0.731313
-0.0387115
0.696889
-0.0412248
0.66374
-0.0432528
0.632082
-0.0452046
0.601945
-0.0471134
0.573075
-0.0488649
0.545387
-0.0504235
0.518797
-0.051789
0.493219
-0.0529617
0.468705
-0.0539531
0.445161
-0.054769
0.422614
-0.0554238
0.401037
-0.0559426
0.380409
-0.0564166
0.360692
-0.0571087
0.341964
-0.0576929
0.324007
-0.0576042
0.306577
-0.0571171
0.289942
-0.0566819
0.274363
-0.0561107
0.259531
-0.0552087
0.245344
-0.0542024
0.232015
-0.0531798
0.219421
-0.052063
0.207438
-0.0508181
0.196046
-0.0494922
0.185273
-0.0481204
0.175152
-0.0466608
0.165582
-0.0451121
0.156529
-0.0434829
0.147968
-0.0417816
0.139868
-0.039991
0.132183
-0.0381134
0.124886
-0.0361975
0.118002
-0.0342043
0.111486
-0.032278
0.105475
-0.0299583
0.0993501
-0.0271384
0.0925029
-0.0229964
0.0836243
-0.0160462
0.0687823
-0.00587434
0.0420592
0.00603314
-0.00381583
0.980667
-0.0103553
0.980167
-0.0163299
0.935969
-0.0217767
0.891069
-0.0267999
0.849473
-0.0316974
0.809601
-0.0361088
0.771514
-0.0400214
0.735225
-0.0434904
0.700358
-0.0468759
0.667126
-0.0501828
0.635389
-0.05305
0.604812
-0.0554799
0.575505
-0.0576132
0.54752
-0.0594958
0.52068
-0.0611366
0.49486
-0.062541
0.470109
-0.0637058
0.446326
-0.0646308
0.423539
-0.0653152
0.401721
-0.0657336
0.380828
-0.0658058
0.360765
-0.0653037
0.341462
-0.064498
0.323201
-0.06396
0.306039
-0.0635495
0.289532
-0.0627908
0.273604
-0.0618501
0.25859
-0.0610025
0.244496
-0.0600466
0.231059
-0.0588668
0.218242
-0.057546
0.206117
-0.056153
0.194653
-0.0546789
0.183799
-0.0530922
0.173565
-0.0514262
0.163916
-0.04969
0.154793
-0.0478861
0.146164
-0.0460048
0.137987
-0.0440617
0.13024
-0.0420805
0.122904
-0.0400204
0.115942
-0.0380784
0.109544
-0.0359308
0.103327
-0.033221
0.0966403
-0.0296976
0.0889795
-0.0242677
0.0781943
-0.0154994
0.060014
-0.00367955
0.0302393
0.00235359
-0.0046707
0.985338
-0.01282
0.988316
-0.0195449
0.942694
-0.0256726
0.897196
-0.0308047
0.854606
-0.0351541
0.81395
-0.0391273
0.775487
-0.0427812
0.738879
-0.046396
0.703973
-0.0494191
0.670149
-0.0519337
0.637903
-0.0544282
0.607306
-0.0568607
0.577938
-0.0591054
0.549765
-0.0611359
0.52271
-0.0629323
0.496657
-0.0644908
0.471668
-0.065824
0.447659
-0.0669321
0.424648
-0.0678194
0.402608
-0.0685022
0.38151
-0.0690626
0.361325
-0.0697581
0.342158
-0.0703739
0.323817
-0.0702915
0.305956
-0.0696343
0.288874
-0.0689807
0.272951
-0.0682428
0.257852
-0.0671083
0.243362
-0.0657617
0.229712
-0.064381
0.216861
-0.0629238
0.20466
-0.0613304
0.19306
-0.0596463
0.182115
-0.0579269
0.171845
-0.0561362
0.162125
-0.0542736
0.15293
-0.0523399
0.144231
-0.0503557
0.136003
-0.0483206
0.128204
-0.0462032
0.120787
-0.0441603
0.113899
-0.0420875
0.107471
-0.0394756
0.100715
-0.0363347
0.0934994
-0.031888
0.0845328
-0.0249062
0.0712125
-0.0144437
0.0495515
-0.00225966
0.0180553
9.39257e-05
-0.00509985
0.990438
-0.0124094
0.995626
-0.0188415
0.949126
-0.0249791
0.903334
-0.0305856
0.860212
-0.0360664
0.819431
-0.0411149
0.780536
-0.045692
0.743456
-0.0496914
0.707972
-0.0537279
0.674185
-0.0577471
0.641922
-0.0612741
0.610833
-0.0643621
0.581026
-0.0671187
0.552522
-0.0695786
0.52517
-0.071757
0.498835
-0.0736524
0.473563
-0.0752482
0.449255
-0.0765399
0.425939
-0.0775206
0.403589
-0.0781684
0.382158
-0.0784185
0.361575
-0.0780326
0.341772
-0.0771732
0.322958
-0.0764232
0.305206
-0.0758679
0.288319
-0.0749601
0.272043
-0.073713
0.256605
-0.0725306
0.24218
-0.0713058
0.228487
-0.0698444
0.215399
-0.0681992
0.203015
-0.0664906
0.191351
-0.0647318
0.180356
-0.0628642
0.169978
-0.0609206
0.160182
-0.058916
0.150925
-0.0568686
0.142183
-0.0547662
0.1339
-0.0526021
0.12604
-0.0505165
0.118701
-0.0485114
0.111894
-0.0461019
0.105062
-0.0433291
0.0979426
-0.0396934
0.0898637
-0.0341126
0.078952
-0.0248967
0.0619967
-0.011244
0.0358988
-0.00134239
0.00815368
-0.00124847
-0.00512477
0.995563
-0.0137302
1.00423
-0.02069
0.956086
-0.0272411
0.909885
-0.0328637
0.865835
-0.0377604
0.824328
-0.0422632
0.785039
-0.0466538
0.747847
-0.0508703
0.712189
-0.0545517
0.677867
-0.0577133
0.645084
-0.0608698
0.61399
-0.0639744
0.58413
-0.0669078
0.555455
-0.0696124
0.527875
-0.0720408
0.501263
-0.0741818
0.475704
-0.0760463
0.451119
-0.0776287
0.427522
-0.0789196
0.40488
-0.0799148
0.383154
-0.0806784
0.362339
-0.0814513
0.342545
-0.082176
0.323682
-0.0822662
0.305296
-0.0815725
0.287625
-0.0807262
0.271197
-0.0798688
0.255748
-0.0785898
0.240901
-0.0769692
0.226867
-0.0752698
0.2137
-0.073529
0.201274
-0.0716694
0.189492
-0.0697082
0.178395
-0.0677248
0.167994
-0.065698
0.158155
-0.0636336
0.148861
-0.0615132
0.140063
-0.0593501
0.131737
-0.0572404
0.123931
-0.0552434
0.116704
-0.0529678
0.109618
-0.0503467
0.102441
-0.0470888
0.0946848
-0.0423737
0.0851487
-0.034568
0.0711463
-0.0223261
0.0497547
-0.00690933
0.020482
-0.000809818
0.00205416
-0.00205828
-0.00493439
1.0005
-0.0121009
1.0114
-0.0186253
0.96261
-0.0248628
0.916122
-0.0307722
0.871744
-0.0366711
0.830227
-0.042218
0.790586
-0.0472228
0.752852
-0.0519656
0.716932
-0.056744
0.682645
-0.0615475
0.649887
-0.0659286
0.618371
-0.0698995
0.588101
-0.0735281
0.559084
-0.0768454
0.531192
-0.0798304
0.504248
-0.0824726
0.478346
-0.0847565
0.453403
-0.0866622
0.429427
-0.0881754
0.406393
-0.0892794
0.384258
-0.0899156
0.362975
-0.0898867
0.342516
-0.0891636
0.322959
-0.0883179
0.304451
-0.0876871
0.286995
-0.0867704
0.27028
-0.0853479
0.254325
-0.083863
0.239416
-0.0823853
0.225389
-0.0807027
0.212017
-0.0787957
0.199367
-0.0768192
0.187515
-0.0748392
0.176415
-0.0727781
0.165933
-0.070659
0.156036
-0.0684921
0.146694
-0.0663114
0.137882
-0.0641484
0.129574
-0.0620942
0.121877
-0.0598907
0.114501
-0.0574267
0.107154
-0.0544813
0.0994952
-0.0504242
0.0906276
-0.0436883
0.0784128
-0.0324508
0.0599087
-0.0157857
0.0330897
-0.00333618
0.00803246
-9.63897e-05
-0.00118563
-0.00215467
-0.0037574
1.00425
-0.0118507
1.01949
-0.0187412
0.969501
-0.0251678
0.922549
-0.0307639
0.87734
-0.0358906
0.835353
-0.040933
0.795628
-0.046006
0.757925
-0.0509271
0.721853
-0.0553993
0.687117
-0.0593865
0.653875
-0.0634237
0.622408
-0.0674399
0.592117
-0.0712826
0.562926
-0.0749146
0.534824
-0.0782835
0.507617
-0.0813297
0.481392
-0.0840325
0.456106
-0.0863862
0.431781
-0.0883709
0.408378
-0.0899658
0.385852
-0.0912149
0.364224
-0.092284
0.343585
-0.0932765
0.323952
-0.0937285
0.304903
-0.0932363
0.286502
-0.0923226
0.269366
-0.0913749
0.253377
-0.0900566
0.238097
-0.0882641
0.223597
-0.0862792
0.210032
-0.0842736
0.197361
-0.0821979
0.185439
-0.0800122
0.174229
-0.0778137
0.163735
-0.0756132
0.153835
-0.0734307
0.144512
-0.0712557
0.135707
-0.0691518
0.12747
-0.0670211
0.119746
-0.0646736
0.112153
-0.0619442
0.104425
-0.0582546
0.0958056
-0.0522114
0.0845844
-0.041793
0.0679944
-0.0255042
0.0436199
-0.00859175
0.0161772
-0.00168816
0.00112887
1.19975e-05
-0.00288579
-0.00214268
-0.00274588
1.007
-0.00873572
1.02548
-0.0146481
0.975413
-0.0208475
0.928748
-0.0267043
0.883197
-0.0328348
0.841484
-0.0386579
0.801451
-0.0441325
0.763399
-0.0494545
0.727175
-0.0549995
0.692662
-0.0607525
0.659628
-0.0661716
0.627827
-0.0711874
0.597133
-0.0759583
0.567697
-0.0804279
0.539294
-0.0845545
0.511744
-0.0883386
0.485176
-0.0916834
0.459451
-0.0945612
0.434659
-0.0969667
0.410783
-0.0988761
0.387762
-0.100249
0.365597
-0.100926
0.344262
-0.100659
0.323685
-0.099956
0.3042
-0.0994064
0.285953
-0.0986491
0.268609
-0.0972361
0.251964
-0.0955176
0.236379
-0.0937731
0.221852
-0.0918873
0.208147
-0.0897547
0.195229
-0.0874909
0.183176
-0.0852619
0.172
-0.0830212
0.161494
-0.0807827
0.151597
-0.0785354
0.142264
-0.0763283
0.1335
-0.0742079
0.12535
-0.0719309
0.117469
-0.069281
0.109503
-0.0657711
0.100915
-0.0602411
0.0902756
-0.0506216
0.074965
-0.0349495
0.0523223
-0.0152756
0.023946
-0.00377241
0.00467403
-0.000418998
-0.00222454
0.000198397
-0.00350318
-0.00194428
-0.000968804
1.00797
-0.00751925
1.03203
-0.0133409
0.981235
-0.0190841
0.934492
-0.0243817
0.888495
-0.0295927
0.846695
-0.0348483
0.806707
-0.0403853
0.768936
-0.0460201
0.73281
-0.0513168
0.697959
-0.0562587
0.66457
-0.0613283
0.632897
-0.0665265
0.602331
-0.0715851
0.572756
-0.076424
0.544132
-0.081015
0.516335
-0.0853328
0.489494
-0.0893081
0.463426
-0.0928461
0.438197
-0.0959249
0.413862
-0.0985087
0.390346
-0.100614
0.367703
-0.102346
0.345993
-0.103901
0.32524
-0.105004
0.305303
-0.105043
0.285992
-0.10425
0.267816
-0.103267
0.250981
-0.101972
0.235084
-0.100117
0.219997
-0.0978634
0.205893
-0.0955213
0.192886
-0.0931824
0.180837
-0.0907411
0.169559
-0.0882864
0.15904
-0.0858946
0.149205
-0.0836114
0.139981
-0.0814528
0.131341
-0.0791992
0.123096
-0.0765907
0.11486
-0.0732157
0.106128
-0.0681271
0.0958261
-0.0591512
0.0812997
-0.043653
0.0594668
-0.0223433
0.0310126
-0.00670925
0.00831198
-0.00113291
-0.000902305
0.000323262
-0.00368071
0.000311807
-0.00349173
-0.00163247
0.00102481
1.00694
-0.00312182
1.03618
-0.00764963
0.985763
-0.012849
0.939691
-0.0182566
0.893902
-0.0242263
0.852665
-0.0300906
0.812571
-0.035906
0.774752
-0.041757
0.738661
-0.0480804
0.704282
-0.054814
0.671303
-0.06135
0.639433
-0.0676065
0.608588
-0.0736945
0.578844
-0.0795834
0.550021
-0.0852447
0.521996
-0.090539
0.494789
-0.0954106
0.468298
-0.0997948
0.442581
-0.103609
0.417677
-0.106808
0.393544
-0.109359
0.370253
-0.111139
0.347774
-0.111813
0.325914
-0.111618
0.305108
-0.111395
0.285768
-0.110985
0.267406
-0.109826
0.249822
-0.10801
0.233269
-0.105954
0.217941
-0.103791
0.20373
-0.101405
0.1905
-0.0987659
0.178198
-0.0961327
0.166925
-0.0935741
0.156481
-0.0911208
0.146752
-0.0888234
0.137684
-0.0864587
0.128977
-0.0838276
0.120465
-0.0805289
0.111562
-0.0757285
0.101328
-0.0673344
0.0874321
-0.0518656
0.0658309
-0.0294573
0.0370584
-0.0108111
0.0123664
-0.00303197
0.00053286
-0.000410918
-0.00352336
0.000274941
-0.00436657
0.000223388
-0.00344017
-0.00140909
0.00211021
1.00483
-0.00119702
1.03948
-0.00525439
0.98982
-0.00963482
0.944071
-0.0140671
0.898335
-0.0189441
0.857542
-0.0240987
0.817725
-0.0299051
0.780558
-0.0360104
0.744766
-0.0420289
0.710301
-0.0478187
0.677093
-0.0539323
0.645547
-0.0603859
0.615041
-0.0668731
0.585331
-0.0732906
0.556439
-0.0795207
0.528226
-0.0854524
0.50072
-0.0910632
0.473909
-0.0963282
0.447846
-0.101034
0.422382
-0.105136
0.397646
-0.108597
0.373714
-0.111456
0.350633
-0.113982
0.32844
-0.116167
0.307293
-0.117191
0.286792
-0.116883
0.267098
-0.115978
0.248917
-0.114723
0.232014
-0.112908
0.216126
-0.11045
0.201272
-0.107616
0.187666
-0.104784
0.175366
-0.10193
0.164071
-0.0990796
0.153631
-0.0963053
0.143978
-0.0936079
0.134986
-0.0908521
0.126221
-0.0876242
0.117237
-0.0829886
0.106926
-0.0749222
0.0932615
-0.0595234
0.0720333
-0.0361671
0.0424745
-0.0155247
0.0164161
-0.00570584
0.00254755
-0.00230067
-0.00287232
-0.00110546
-0.00471856
-0.000499252
-0.00497278
-0.000102073
-0.00383736
-0.00151116
0.00550133
0.999333
0.00381785
1.04117
0.00131828
0.99232
-0.002349
0.947739
-0.0068259
0.902812
-0.0121241
0.86284
-0.0175904
0.823192
-0.0232925
0.78626
-0.0293795
0.750853
-0.0361597
0.717081
-0.0436642
0.684597
-0.0512179
0.6531
-0.0586835
0.622507
-0.0661897
0.592837
-0.0736769
0.563926
-0.0810454
0.535595
-0.0882114
0.507886
-0.0950483
0.480746
-0.101405
0.454203
-0.107233
0.42821
-0.112373
0.402786
-0.116708
0.378049
-0.120141
0.354066
-0.122408
0.330706
-0.123252
0.308138
-0.123653
0.287192
-0.123865
0.26731
-0.12333
0.248382
-0.121758
0.230442
-0.119443
0.213811
-0.116834
0.198662
-0.114046
0.184879
-0.110866
0.172185
-0.107407
0.160612
-0.104252
0.150476
-0.101133
0.140859
-0.0979687
0.131821
-0.0945569
0.122809
-0.0898636
0.112544
-0.0818408
0.0989033
-0.0665609
0.0779816
-0.042364
0.0478364
-0.0200246
0.0201351
-0.00841539
0.00480687
-0.00416875
-0.00169909
-0.0026238
-0.00441727
-0.00179
-0.00555237
-0.00114113
-0.00562165
-0.000469532
-0.00450895
-0.00198069
0.00580861
0.993524
0.00556293
1.04141
0.0038874
0.993995
0.00139498
0.950231
-0.00200553
0.906212
-0.00574585
0.86658
-0.0103306
0.827776
-0.015956
0.791886
-0.0219979
0.756895
-0.0281846
0.723268
-0.0344925
0.690905
-0.0413961
0.660004
-0.0489355
0.630046
-0.0567758
0.600677
-0.0647845
0.571935
-0.0728287
0.543639
-0.0807703
0.515828
-0.088477
0.488452
-0.0957775
0.461503
-0.10259
0.435023
-0.108858
0.409054
-0.114382
0.383573
-0.11903
0.358714
-0.12308
0.334756
-0.126853
0.311911
-0.129386
0.289726
-0.130254
0.268178
-0.129803
0.247932
-0.128637
0.229275
-0.126937
0.212111
-0.124464
0.196189
-0.121066
0.181481
-0.117418
0.168537
-0.113616
0.156811
-0.10961
0.146469
-0.105697
0.136946
-0.101557
0.127682
-0.096246
0.117498
-0.0879773
0.104275
-0.0728522
0.0837782
-0.0482002
0.0533296
-0.0236661
0.0233023
-0.0100136
0.00648263
-0.00434091
-0.000865863
-0.00220714
-0.00383286
-0.00135889
-0.00526552
-0.00103136
-0.0058799
-0.00082981
-0.0058232
-0.000464368
-0.0048744
-0.00244506
0.0108153
0.982709
0.0112421
1.04099
0.0109776
0.99426
0.00842823
0.95278
0.0054801
0.90916
0.00153852
0.870522
-0.00315863
0.832474
-0.00819195
0.796919
-0.0138944
0.762597
-0.0205836
0.729957
-0.0283545
0.698676
-0.0364256
0.668075
-0.0447184
0.638339
-0.0533808
0.60934
-0.062339
0.580893
-0.0714635
0.552764
-0.0806157
0.52498
-0.0896453
0.497482
-0.0983916
0.47025
-0.106674
0.443305
-0.114331
0.416711
-0.121165
0.390408
-0.126995
0.364544
-0.131543
0.339303
-0.1343
0.314668
-0.13582
0.291246
-0.136996
0.269354
-0.137517
0.248453
-0.13686
0.228619
-0.13476
0.21001
-0.131633
0.193062
-0.128316
0.178165
-0.124441
0.164661
-0.119839
0.152209
-0.114885
0.141515
-0.10959
0.131652
-0.103103
0.121194
-0.0939035
0.108299
-0.0783595
0.0887312
-0.0533826
0.0588012
-0.0262532
0.0262002
-0.00914323
0.00619237
-0.00106544
-0.00159516
0.00267727
-0.00460858
0.00397352
-0.0051291
0.0038064
-0.0050984
0.00276018
-0.00483368
0.00139867
-0.00446169
0.000328993
-0.00380472
-0.00211607
0.00938285
0.973326
0.010955
1.03942
0.0117484
0.993466
0.0113176
0.953211
0.00987979
0.910598
0.00734911
0.873053
0.00386913
0.835954
-0.000617749
0.801406
-0.00606559
0.768045
-0.0119609
0.735852
-0.0181377
0.704853
-0.0251937
0.675131
-0.0332782
0.646424
-0.0420136
0.618075
-0.0512864
0.590166
-0.0609593
0.562436
-0.0708569
0.534878
-0.0807913
0.507416
-0.09054
0.479998
-0.0999153
0.452681
-0.108718
0.425514
-0.116886
0.398575
-0.124194
0.371852
-0.130491
0.3456
-0.136299
0.320476
-0.141245
0.296192
-0.144134
0.272244
-0.145002
0.24932
-0.144337
0.227954
-0.142811
0.208485
-0.14068
0.190931
-0.137106
0.174591
-0.132081
0.159636
-0.126741
0.146869
-0.120393
0.135167
-0.112492
0.123751
-0.101562
0.110265
-0.0842406
0.0909772
-0.0566949
0.0611855
-0.0267988
0.0289051
-0.00463546
0.00403687
0.00674122
-0.00518431
0.0120766
-0.00693057
0.0136862
-0.00621817
0.0131308
-0.0045737
0.0112001
-0.00316767
0.0083131
-0.00194669
0.00494304
-0.00109162
0.00178334
-0.000645025
-0.000332724
0.0142654
0.959061
0.0165891
1.03709
0.0180634
0.991992
0.01726
0.954015
0.0160189
0.911839
0.0135611
0.87551
0.0105338
0.838981
0.00663237
0.805307
0.00195458
0.772723
-0.00395405
0.741761
-0.0112285
0.712127
-0.0190785
0.682981
-0.0274312
0.654776
-0.0365689
0.627213
-0.0464227
0.600019
-0.0568634
0.572877
-0.0677428
0.545757
-0.0788658
0.518539
-0.0900476
0.49118
-0.101068
0.463701
-0.111651
0.436096
-0.121525
0.40845
-0.130466
0.380793
-0.138173
0.353307
-0.143965
0.326269
-0.147684
0.299911
-0.150321
0.274881
-0.152093
0.251092
-0.153017
0.228878
-0.152355
0.207822
-0.149325
0.187902
-0.144801
0.170066
-0.139934
0.154769
-0.133477
0.140412
-0.12458
0.12627
-0.111594
0.110765
-0.0913197
0.0899904
-0.0592403
0.0588979
-0.025929
0.0278742
-0.000121796
0.00309797
0.0138829
-0.00996782
0.0190722
-0.0103736
0.0202495
-0.00810786
0.0192886
-0.00525726
0.0172027
-0.00248783
0.0141766
-0.000141596
0.010345
0.00188499
0.00625887
0.00299446
0.00238382
0.00323002
0.0020511
0.0110914
0.947969
0.0146758
1.03351
0.0171679
0.9895
0.0185151
0.952667
0.0186669
0.911687
0.0178895
0.876288
0.0160696
0.840801
0.0130483
0.808329
0.00909367
0.776677
0.00445432
0.7464
-0.000686238
0.717268
-0.00718091
0.689476
-0.0149337
0.662529
-0.0236421
0.635922
-0.0333484
0.609726
-0.0439391
0.583468
-0.0552528
0.557071
-0.0670879
0.530375
-0.0791383
0.503231
-0.0911535
0.475717
-0.102877
0.44782
-0.11404
0.419612
-0.124431
0.391185
-0.13398
0.362855
-0.142548
0.334837
-0.150488
0.307851
-0.156486
0.280879
-0.160103
0.254708
-0.161335
0.23011
-0.160163
0.20665
-0.157909
0.185647
-0.155035
0.167193
-0.149094
0.148828
-0.138699
0.130017
-0.12321
0.110781
-0.0987367
0.0862917
-0.063034
0.0542877
-0.0264009
0.0222648
-0.00102016
0.00249347
0.0139318
-0.011854
0.01848
-0.014516
0.0201809
-0.0120746
0.0197916
-0.00771852
0.0181931
-0.00365881
0.0159195
-0.000214165
0.0127683
0.00300957
0.00930569
0.00534761
0.00556945
0.0067307
0.00203319
0.00676628
0.00408428
0.0156817
0.932287
0.0195939
1.02959
0.0217422
0.987352
0.0222025
0.952207
0.0227782
0.911112
0.0220093
0.877057
0.0206042
0.842206
0.0185492
0.810384
0.0155759
0.779651
0.0112637
0.750713
0.0054679
0.723064
-0.00115789
0.696101
-0.00875711
0.670128
-0.0173966
0.644561
-0.0270592
0.619388
-0.037855
0.594264
-0.0496669
0.568883
-0.0623037
0.543011
-0.075523
0.51645
-0.0890475
0.489241
-0.102543
0.461316
-0.115676
0.432744
-0.128206
0.403715
-0.139723
0.374373
-0.149652
0.344766
-0.156918
0.315117
-0.162314
0.286275
-0.166106
0.2585
-0.168226
0.232231
-0.170215
0.208639
-0.169821
0.185253
-0.163511
0.160883
-0.152323
0.13764
-0.13457
0.112264
-0.105052
0.0812631
-0.0682545
0.0494937
-0.0348873
0.0209204
-0.0150371
0.00241458
-0.00497142
-0.0075722
-0.00297524
-0.0138502
-0.00163586
-0.0158553
0.000441089
-0.0141515
0.00223361
-0.00951104
0.00319747
-0.00462267
0.00315462
-0.000171323
0.0030123
0.00315189
0.00217237
0.00618755
0.00100329
0.00789977
6.35477e-05
0.00770603
0.00414783
0.00978399
0.922503
0.0156901
1.02369
0.0186361
0.984406
0.0213218
0.949521
0.0229807
0.909453
0.0238449
0.876193
0.0238313
0.84222
0.0227014
0.811514
0.020604
0.781748
0.0179511
0.753365
0.0146035
0.726411
0.00979043
0.700914
0.00341252
0.676506
-0.00433047
0.652304
-0.0133214
0.628379
-0.0236878
0.60463
-0.0353623
0.580557
-0.0482389
0.555888
-0.0620338
0.530245
-0.0762153
0.503422
-0.0905808
0.475681
-0.104947
0.44711
-0.118949
0.417717
-0.132103
0.387527
-0.144379
0.357042
-0.155688
0.326426
-0.165457
0.296044
-0.173232
0.266275
-0.178522
0.23752
-0.180096
0.210213
-0.17586
0.181017
-0.165578
0.150601
-0.14599
0.118052
-0.115477
0.0817515
-0.0854586
0.0512445
-0.0622455
0.0262806
-0.0495939
0.00826883
-0.0433915
-0.00378783
-0.037752
-0.0132117
-0.0315888
-0.0200134
-0.025048
-0.0223961
-0.0183783
-0.0208213
-0.0126814
-0.0152079
-0.00860801
-0.00869604
-0.00604904
-0.00273028
-0.00465093
0.00175377
-0.00365539
0.00519201
-0.00260006
0.00684445
-0.0013035
0.00640946
0.00284433
0.0136662
0.908837
0.020646
1.01671
0.021061
0.983991
0.0230277
0.947555
0.0248898
0.90759
0.0256041
0.875478
0.0258789
0.841945
0.0257511
0.811641
0.0247059
0.782793
0.0224775
0.755594
0.0187569
0.730132
0.0141747
0.705497
0.00852211
0.682159
0.00151546
0.659311
-0.00697224
0.636867
-0.0169166
0.614574
-0.0285054
0.592146
-0.0415851
0.568968
-0.0561929
0.544853
-0.0715098
0.518739
-0.0874005
0.491572
-0.103706
0.463416
-0.119985
0.433996
-0.135448
0.40299
-0.14999
0.371585
-0.162263
0.338699
-0.171636
0.305416
-0.179463
0.274102
-0.183557
0.241614
-0.181574
0.208231
-0.174206
0.173649
-0.153988
0.130383
-0.129066
0.0931293
-0.107034
0.0597197
-0.0929495
0.0371597
-0.0842831
0.0176143
-0.0778342
0.00181994
-0.0703998
-0.0112222
-0.0631141
-0.0204975
-0.0552854
-0.0278421
-0.0467973
-0.0308842
-0.0370942
-0.0305244
-0.0267364