/*--------------------------------*- C++ -*----------------------------------*\
| =========                 |                                                 |
| \\      /  F ield         | OpenFOAM: The Open Source CFD Toolbox           |
|  \\    /   O peration     | Version:  v1912                                 |
|   \\  /    A nd           | Website:  www.openfoam.com                      |
|    \\/     M anipulation  |                                                 |
\*---------------------------------------------------------------------------*/
FoamFile
{
    version     2.0;
    format      ascii;
    class       volVectorField;
    location    "0.23";
    object      U;
}
// * * * * * * * * * * * * * * * * * * * * * * * * * * * * * * * * * * * * * //

dimensions      [0 1 -1 0 0 0 0];


internalField   nonuniform List<vector> 
6600
(
(39.8462 -0.0371837 0)
(40.1061 -0.0393121 8.97792e-21)
(40.1757 0.0670668 6.31949e-19)
(40.2271 0.180694 0)
(40.2961 0.311065 7.67382e-19)
(40.3613 0.477867 2.5492e-20)
(40.4342 0.66078 -2.82685e-20)
(40.4985 0.869996 -3.21312e-20)
(40.5314 1.10956 6.79613e-19)
(40.5651 1.34574 -1.17784e-19)
(40.6007 1.57875 0)
(40.594 1.84902 -9.32366e-19)
(40.5859 2.12043 0)
(40.5761 2.3993 -1.05524e-18)
(40.5472 2.69372 -1.59991e-18)
(40.4986 2.99782 -8.96329e-19)
(40.4341 3.31705 0)
(40.3467 3.64984 0)
(40.2439 3.9989 1.6928e-18)
(40.1244 4.36346 -1.58439e-18)
(39.9952 4.7477 -2.44113e-19)
(39.8581 5.14835 -9.63966e-19)
(39.698 5.56121 -1.86336e-18)
(39.4771 5.93302 4.41656e-19)
(39.3171 6.36885 1.65984e-18)
(39.1381 6.85633 0)
(38.8542 7.35794 4.32196e-18)
(38.5437 7.88098 0)
(38.279 8.47128 -2.31671e-18)
(37.9994 9.08939 -1.56257e-18)
(37.6861 9.71642 -3.25023e-19)
(37.3848 10.3805 -2.04538e-18)
(37.0901 11.0909 -8.4601e-19)
(36.7556 11.8406 1.81166e-18)
(36.4184 12.6277 3.30555e-19)
(36.1131 13.4809 2.2464e-18)
(35.8069 14.3954 4.2588e-18)
(35.5122 15.3635 4.36661e-18)
(35.2441 16.3992 -3.24604e-18)
(34.9917 17.5043 3.51091e-18)
(34.7727 18.6824 1.8942e-18)
(34.5829 19.9342 0)
(34.4389 21.263 -6.50504e-19)
(34.3525 22.6986 1.53216e-18)
(34.2995 24.1865 0)
(34.3206 25.819 -2.04019e-19)
(34.3827 27.4012 -7.90986e-19)
(34.6843 29.4394 0)
(33.0894 29.9772 0)
(23.363 22.519 -1.23408e-18)
(39.7426 -0.0476715 5.24591e-19)
(40.1982 -0.0495276 -5.14999e-19)
(40.2725 0.110688 0)
(40.3335 0.272103 -9.55951e-21)
(40.386 0.455636 6.38616e-19)
(40.4452 0.652963 2.29009e-20)
(40.4949 0.839032 2.62817e-23)
(40.5575 1.04372 -2.83021e-20)
(40.6105 1.23615 0)
(40.6536 1.47148 -1.13005e-18)
(40.6882 1.72202 -4.14507e-20)
(40.7329 1.96775 7.25993e-19)
(40.7577 2.23671 7.91785e-19)
(40.7736 2.52249 6.48707e-19)
(40.7682 2.82676 -5.16055e-21)
(40.7405 3.143 9.20405e-20)
(40.6987 3.4753 -8.46261e-19)
(40.6334 3.82182 0)
(40.5516 4.18506 0)
(40.4493 4.56341 1.6411e-18)
(40.3235 4.95982 2.39714e-19)
(40.1682 5.37405 -1.30449e-18)
(39.9845 5.80988 -1.23737e-18)
(39.849 6.36197 -1.46963e-18)
(39.62 6.86875 -1.26268e-18)
(39.3339 7.34552 -5.30199e-19)
(39.1103 7.88077 -7.04225e-19)
(38.9092 8.45387 -7.33097e-19)
(38.642 9.00423 2.3124e-18)
(38.3782 9.59231 2.9138e-19)
(38.1367 10.2501 -3.07511e-18)
(37.8656 10.9333 2.86989e-18)
(37.5707 11.6467 2.16428e-18)
(37.2858 12.3986 -2.69862e-18)
(37.0148 13.1982 3.41986e-19)
(36.7428 14.0475 -2.29748e-18)
(36.5078 14.9441 2.02076e-18)
(36.2972 15.9021 -1.53702e-18)
(36.0995 16.9106 -1.17589e-18)
(35.9464 17.9835 -1.32579e-18)
(35.8207 19.1101 0)
(35.7257 20.3044 0)
(35.6858 21.5552 -3.08124e-19)
(35.7295 22.8975 2.79974e-19)
(35.8963 24.3186 -2.34332e-19)
(36.12 25.8512 2.10656e-19)
(36.3826 27.3461 2.14425e-18)
(36.753 29.1091 0)
(34.9992 29.2011 -3.33277e-18)
(23.99 21.2178 1.3994e-18)
(39.6903 -0.0085337 -6.00753e-20)
(40.329 -0.049634 5.2507e-19)
(40.3798 0.133059 4.82376e-19)
(40.4641 0.286121 -3.89752e-22)
(40.5434 0.469527 -1.23029e-19)
(40.6166 0.678356 2.01807e-20)
(40.7143 0.913628 0)
(40.7876 1.15103 0)
(40.8268 1.42954 0)
(40.8732 1.68355 5.7687e-19)
(40.9112 1.95332 -3.54758e-20)
(40.915 2.25843 -7.30836e-19)
(40.9186 2.56059 -4.47623e-19)
(40.9187 2.87216 8.74328e-19)
(40.902 3.19929 5.07729e-19)
(40.8647 3.53763 -8.61971e-20)
(40.8123 3.89177 1.68058e-18)
(40.7388 4.26093 -8.7949e-19)
(40.6507 4.64713 -1.05841e-18)
(40.5477 5.04975 0)
(40.4376 5.47228 -7.64031e-19)
(40.3219 5.91059 1.04965e-18)
(40.187 6.35811 1.25218e-18)
(39.9898 6.75605 1.48815e-18)
(39.8671 7.23402 1.33632e-18)
(39.7291 7.76526 -1.81714e-19)
(39.4812 8.29931 -2.78984e-19)
(39.2108 8.85058 -8.96376e-19)
(38.9996 9.47327 -3.80054e-19)
(38.7768 10.1172 1.47193e-18)
(38.5213 10.762 5.04974e-19)
(38.2918 11.4449 0)
(38.0821 12.1689 -2.60727e-18)
(37.8396 12.9252 7.20996e-19)
(37.6057 13.7099 1.5908e-18)
(37.419 14.5474 2.36639e-18)
(37.2421 15.4338 -1.19579e-18)
(37.0917 16.3606 -9.66921e-19)
(36.9873 17.3406 3.72864e-19)
(36.9164 18.3713 0)
(36.9008 19.4562 -4.56413e-19)
(36.9398 20.5907 0)
(37.0525 21.7779 0)
(37.2517 23.0407 4.00343e-19)
(37.5039 24.3226 3.26712e-19)
(37.848 25.71 -1.37904e-18)
(38.2908 27.1571 -1.44263e-18)
(38.6615 28.5178 0)
(36.5834 28.1473 -2.10164e-18)
(24.1516 19.5474 2.3148e-18)
(39.6427 0.00471633 -4.67973e-19)
(40.4995 -0.00496502 3.15505e-21)
(40.534 0.238723 -4.94732e-19)
(40.6084 0.416381 -3.93802e-19)
(40.6739 0.64197 -5.30224e-19)
(40.749 0.863235 -2.17416e-19)
(40.8084 1.08029 -1.78739e-20)
(40.8791 1.31856 0)
(40.9421 1.54871 3.01697e-19)
(40.9875 1.81364 3.71174e-19)
(41.0297 2.08826 -2.85953e-20)
(41.0868 2.35974 -3.53167e-20)
(41.1169 2.66128 -3.21134e-19)
(41.1403 2.97689 -1.39978e-19)
(41.1429 3.31093 -4.68882e-20)
(41.1244 3.65727 -7.27242e-20)
(41.094 4.02046 -5.48139e-20)
(41.0407 4.39944 9.92204e-19)
(40.9724 4.79533 1.39108e-18)
(40.8861 5.20741 0)
(40.7789 5.6381 1.24817e-19)
(40.6439 6.08575 0)
(40.4802 6.54829 0)
(40.3743 7.13548 -3.14899e-19)
(40.1733 7.6754 1.00796e-18)
(39.92 8.18245 1.13705e-18)
(39.7421 8.74722 -2.42926e-19)
(39.592 9.35133 1.25636e-18)
(39.3737 9.92727 0)
(39.1697 10.5364 0)
(39.0021 11.2113 7.72416e-19)
(38.8096 11.9053 0)
(38.5987 12.6235 6.70692e-19)
(38.4137 13.3727 1.16555e-18)
(38.2572 14.1631 -2.07536e-18)
(38.1089 14.9919 -2.14814e-18)
(38.0121 15.8525 1.81525e-18)
(37.955 16.7602 -6.77019e-19)
(37.9267 17.7014 2.85347e-19)
(37.9611 18.6868 3.28279e-19)
(38.0395 19.7015 3.91128e-19)
(38.168 20.7584 0)
(38.3703 21.8438 0)
(38.6666 22.9783 -4.26828e-19)
(39.1094 24.1606 -1.33606e-18)
(39.6192 25.4168 -5.47976e-19)
(40.1703 26.7063 -2.80479e-18)
(40.4052 27.7507 3.09689e-18)
(37.7623 26.8147 4.68411e-18)
(23.8006 17.5705 0)
(39.6372 0.0546305 -1.2443e-21)
(40.6798 0.00841552 2.69326e-19)
(40.7234 0.291002 2.86325e-19)
(40.8239 0.424619 4.08444e-19)
(40.8924 0.662086 0)
(40.9779 0.907929 7.61012e-20)
(41.0799 1.16623 0)
(41.1591 1.44155 -1.41397e-20)
(41.2097 1.74085 -4.82155e-19)
(41.2558 2.03028 -3.65897e-19)
(41.2993 2.33118 2.06959e-20)
(41.3103 2.66408 2.6171e-20)
(41.3222 2.99539 -2.91218e-20)
(41.3299 3.33654 -3.4046e-19)
(41.3207 3.69342 -7.50063e-19)
(41.293 4.06196 5.20907e-20)
(41.2494 4.44738 -1.05269e-18)
(41.1866 4.848 8.54648e-20)
(41.1117 5.2652 -4.37252e-19)
(41.0244 5.69914 -2.42333e-19)
(40.9331 6.15258 7.93227e-19)
(40.8394 6.6212 0)
(40.7315 7.09496 0)
(40.5578 7.509 -4.43526e-19)
(40.466 8.0081 -6.65271e-19)
(40.3703 8.57017 7.98948e-19)
(40.1658 9.12987 -2.01478e-19)
(39.941 9.69578 0)
(39.7907 10.3362 2.75002e-19)
(39.635 10.9971 -3.06314e-19)
(39.4464 11.65 -7.85048e-19)
(39.2959 12.3357 -1.00857e-18)
(39.1803 13.055 4.15742e-19)
(39.0411 13.7999 -4.12288e-19)
(38.9215 14.5628 4.58767e-19)
(38.8644 15.3647 0)
(38.8283 16.202 -5.27569e-19)
(38.8297 17.0621 -3.54178e-19)
(38.8931 17.9566 2.47808e-19)
(39.0006 18.8784 1.89452e-19)
(39.1745 19.8314 7.91424e-20)
(39.4165 20.8037 0)
(39.7444 21.7987 0)
(40.1737 22.8358 -1.28117e-18)
(40.648 23.8515 2.79479e-18)
(41.201 24.93 7.62524e-19)
(41.795 26.1289 1.76799e-18)
(41.8253 26.7184 -3.80621e-18)
(38.4103 25.231 3.68833e-19)
(22.7956 15.2902 -6.36879e-18)
(39.6658 0.0753581 2.21549e-19)
(40.8841 0.0593052 -1.0973e-19)
(40.9223 0.420709 -2.92422e-19)
(41.0089 0.584748 7.08353e-20)
(41.086 0.84843 0)
(41.149 1.09565 1.53973e-19)
(41.2149 1.33861 -3.67787e-21)
(41.2956 1.59426 -6.3469e-20)
(41.3659 1.86222 1.95603e-19)
(41.4186 2.15672 0)
(41.4675 2.45414 1.24688e-20)
(41.5304 2.75185 5.27306e-20)
(41.5676 3.08146 -1.07131e-19)
(41.5991 3.42403 2.14778e-20)
(41.6134 3.78476 3.24588e-19)
(41.6061 4.15945 -3.41569e-20)
(41.5885 4.55022 3.66836e-19)
(41.5508 4.95726 -5.41338e-20)
(41.4992 5.38114 7.54367e-20)
(41.4323 5.82166 1.90784e-19)
(41.3472 6.28201 2.859e-19)
(41.237 6.76093 -5.68389e-21)
(41.1004 7.25601 1.60601e-19)
(41.0307 7.87557 6.67119e-19)
(40.8652 8.44271 0)
(40.6433 8.96687 -6.25529e-19)
(40.5085 9.54674 1.58377e-19)
(40.4132 10.1703 3.73709e-21)
(40.2493 10.7582 -8.02986e-20)
(40.1082 11.3697 2.25257e-19)
(40.0185 12.0417 -3.76128e-19)
(39.9107 12.7257 6.45433e-19)
(39.786 13.4255 0)
(39.7002 14.1446 0)
(39.6606 14.8967 0)
(39.636 15.6752 0)
(39.672 16.4672 3.97061e-20)
(39.7608 17.2893 -6.48186e-20)
(39.8854 18.1246 0)
(40.0808 18.9818 3.66941e-20)
(40.3259 19.8405 -2.09363e-19)
(40.6257 20.7141 -1.71225e-18)
(41.0029 21.5893 9.39551e-19)
(41.459 22.4674 0)
(42.062 23.3679 1.19561e-18)
(42.7262 24.3479 -4.33753e-18)
(43.2552 25.2447 3.17411e-18)
(42.925 25.5539 2.53981e-18)
(38.4149 23.368 9.40307e-18)
(21.056 12.7479 -7.03105e-18)
(39.7335 0.101573 -2.21215e-19)
(41.121 0.0498766 -1.97265e-19)
(41.187 0.463027 1.27323e-21)
(41.2936 0.584996 -7.16082e-20)
(41.361 0.882566 -2.33746e-20)
(41.4669 1.14314 -3.59794e-22)
(41.5585 1.4308 -5.11249e-20)
(41.642 1.73418 6.3723e-20)
(41.6911 2.05557 -7.37338e-20)
(41.7519 2.36668 -1.58531e-22)
(41.8079 2.71387 4.16078e-20)
(41.8354 3.07599 -1.06845e-19)
(41.8587 3.43999 8.83114e-20)
(41.8784 3.81187 0)
(41.8831 4.20033 0)
(41.8696 4.60087 8.34999e-21)
(41.8421 5.01804 1.48435e-19)
(41.7964 5.45021 0)
(41.7401 5.89782 2.0657e-20)
(41.6732 6.36089 -3.00077e-19)
(41.6042 6.84069 -3.11871e-19)
(41.5346 7.33289 6.06552e-20)
(41.4515 7.82044 0)
(41.3076 8.25344 -3.14896e-19)
(41.2426 8.76085 -7.4354e-20)
(41.1912 9.34094 8.29439e-20)
(41.0389 9.91563 0)
(40.8629 10.4788 0)
(40.7715 11.1142 -2.92228e-19)
(40.6841 11.7724 -2.2e-20)
(40.5626 12.4139 5.05206e-19)
(40.4845 13.0771 -1.37909e-19)
(40.4569 13.7627 -8.84953e-20)
(40.418 14.4663 1.43236e-19)
(40.4025 15.1748 5.88355e-20)
(40.4606 15.9045 1.89244e-19)
(40.5473 16.655 -5.44786e-20)
(40.6721 17.4091 2.18362e-19)
(40.8657 18.1773 -8.14174e-19)
(41.1027 18.9478 4.96603e-20)
(41.4031 19.7279 -2.51143e-19)
(41.7725 20.5001 8.86421e-19)
(42.2228 21.2651 1.5774e-18)
(42.7813 22.0475 -1.75225e-18)
(43.3587 22.7875 1.17237e-18)
(44.0094 23.6517 0)
(44.3117 24.2033 1.97204e-18)
(43.5084 24.175 3.1353e-18)
(37.6547 21.2627 -6.36853e-18)
(18.4107 9.97925 -1.94631e-18)
(39.826 0.128972 -1.4979e-20)
(41.3768 0.0947325 3.71508e-20)
(41.4337 0.597629 -3.03748e-22)
(41.5423 0.7365 9.86112e-20)
(41.6014 1.06006 1.44799e-19)
(41.6664 1.32934 -1.53044e-19)
(41.7442 1.59187 2.34037e-19)
(41.8323 1.88065 -1.03993e-19)
(41.9241 2.16842 7.41593e-20)
(41.9754 2.50282 1.38955e-19)
(42.0333 2.81164 -2.0154e-19)
(42.1074 3.13654 5.21683e-20)
(42.16 3.49271 1.74545e-19)
(42.2062 3.86251 -8.29872e-22)
(42.2376 4.25083 9.09737e-20)
(42.2499 4.65369 -1.00074e-19)
(42.2518 5.0722 -2.46556e-20)
(42.2363 5.50653 0)
(42.2082 5.95734 0)
(42.1666 6.42406 0)
(42.1087 6.90969 -6.97916e-21)
(42.0264 7.41323 -9.14332e-20)
(41.9249 7.94235 4.01006e-20)
(41.8925 8.58158 -1.74207e-20)
(41.7713 9.17295 0)
(41.5806 9.70531 0)
(41.4804 10.2828 -7.05976e-21)
(41.4386 10.9119 -3.17171e-20)
(41.3325 11.4986 -9.312e-20)
(41.2476 12.0898 1.09375e-19)
(41.2263 12.7321 2.14151e-20)
(41.1992 13.3807 1.79512e-19)
(41.1502 14.0347 -4.19013e-20)
(41.1445 14.6916 2.66656e-19)
(41.2029 15.3709 -9.7208e-20)
(41.2757 16.0645 -6.01707e-21)
(41.4066 16.7518 1.37182e-19)
(41.5974 17.4515 3.6069e-19)
(41.8203 18.145 3.11023e-19)
(42.1107 18.8414 6.62844e-19)
(42.4474 19.5143 -2.28379e-19)
(42.8325 20.1795 1.44803e-18)
(43.2919 20.8306 -1.61061e-18)
(43.7949 21.4436 0)
(44.4378 22.0816 0)
(45.0801 22.7958 0)
(45.1806 23.0395 0)
(43.5859 22.6148 0)
(35.9358 18.8468 -3.61805e-18)
(14.8337 7.05394 5.9481e-18)
(39.9445 0.163295 1.51454e-20)
(41.6851 0.0826538 0)
(41.7597 0.613479 0)
(41.8717 0.727392 -1.01232e-19)
(41.9436 1.07589 -1.19998e-19)
(42.0595 1.36007 1.57204e-19)
(42.1588 1.6875 -1.87019e-19)
(42.2451 2.00262 1.04324e-19)
(42.3075 2.35923 -2.10744e-19)
(42.3832 2.68394 -1.45729e-19)
(42.4627 3.0695 1.48907e-19)
(42.5102 3.46179 -2.86798e-19)
(42.5556 3.85549 -3.43485e-19)
(42.5959 4.25902 0)
(42.6236 4.67897 -9.78767e-20)
(42.6322 5.11227 1.19903e-19)
(42.6283 5.56094 -1.12121e-21)
(42.6066 6.02436 2.62667e-19)
(42.5744 6.50193 -3.09125e-19)
(42.5328 6.99308 0)
(42.4882 7.49713 0)
(42.4422 8.00825 -1.78732e-19)
(42.3851 8.50919 1.69554e-19)
(42.2704 8.9557 2.13081e-19)
(42.2215 9.45598 3.00955e-20)
(42.2124 10.0402 -1.68815e-19)
(42.1209 10.6206 1.64928e-19)
(41.9917 11.1635 -2.43605e-19)
(41.9465 11.77 9.67854e-20)
(41.9216 12.4063 -8.95596e-20)
(41.8596 13.0161 5.49897e-20)
(41.8321 13.631 -8.97265e-20)
(41.8694 14.2544 2.14911e-19)
(41.9107 14.8895 -2.22929e-19)
(41.9679 15.5163 0)
(42.1003 16.1435 -3.35339e-19)
(42.2651 16.7779 -2.95104e-19)
(42.4574 17.3989 1.35101e-19)
(42.7166 18.0168 9.234e-19)
(43.0108 18.614 -8.77162e-19)
(43.3555 19.2058 -2.00285e-19)
(43.7653 19.7736 -1.69988e-18)
(44.2362 20.3062 4.05249e-18)
(44.8259 20.852 3.21789e-19)
(45.4563 21.4234 3.71714e-19)
(45.7991 21.7774 -1.68677e-18)
(45.5163 21.7778 0)
(42.8567 20.7784 3.19551e-18)
(33.1241 16.091 -1.71578e-18)
(10.0306 3.89541 0)
(40.0927 0.190416 -1.08977e-21)
(42.0044 0.141297 -1.68869e-22)
(42.0685 0.725771 2.53276e-19)
(42.1696 0.848558 0)
(42.2357 1.24796 4.67975e-21)
(42.2973 1.51618 2.01086e-19)
(42.3909 1.80165 0)
(42.4998 2.12258 -2.73612e-19)
(42.6065 2.42959 2.27759e-19)
(42.6727 2.7918 -1.82609e-20)
(42.7431 3.11732 -4.03688e-19)
(42.8351 3.46633 5.03232e-20)
(42.9103 3.84787 1.94442e-19)
(42.9806 4.244 0)
(43.0364 4.66039 0)
(43.0746 5.09101 0)
(43.1033 5.53718 3.63925e-19)
(43.1145 5.99888 -2.64772e-19)
(43.114 6.47561 5.84885e-19)
(43.1016 6.96748 -5.27451e-20)
(43.0736 7.47611 1.16854e-19)
(43.0216 7.99904 1.15152e-19)
(42.9544 8.54904 -5.76758e-19)
(42.9574 9.19796 -4.28442e-19)
(42.8845 9.80984 0)
(42.7211 10.3426 1.88396e-19)
(42.6381 10.8998 -5.36694e-19)
(42.639 11.5197 2.63971e-19)
(42.5868 12.0949 -1.70445e-19)
(42.5397 12.6468 9.92597e-20)
(42.5619 13.2357 -1.37374e-19)
(42.5975 13.8271 5.54197e-19)
(42.6008 14.4154 -5.45573e-19)
(42.6385 14.9882 8.68577e-19)
(42.7558 15.5714 3.62716e-19)
(42.8821 16.1599 -8.69608e-19)
(43.0523 16.7251 1.13447e-18)
(43.285 17.2877 -7.57148e-19)
(43.5398 17.8269 2.95023e-20)
(43.8502 18.3578 0)
(44.2023 18.8478 1.341e-18)
(44.59 19.3111 9.55304e-19)
(45.0571 19.7636 1.24309e-19)
(45.534 20.1712 -2.73625e-18)
(46.098 20.5862 -9.70895e-20)
(46.2296 20.6831 -1.98119e-18)
(45.4605 20.3772 0)
(41.3028 18.6096 3.24645e-18)
(29.0893 12.8151 -5.47065e-18)
(5.71626 1.22682 0)
(40.3008 0.249338 0)
(42.3617 0.127116 0)
(42.4377 0.717081 -7.80111e-20)
(42.5516 0.821849 1.12596e-20)
(42.63 1.22123 -2.49625e-19)
(42.7594 1.51557 -2.06708e-19)
(42.863 1.85658 0)
(42.9718 2.20457 2.74239e-19)
(43.0488 2.56945 -4.24338e-19)
(43.1544 2.91869 0)
(43.2702 3.33943 6.8091e-19)
(43.3497 3.75857 -8.52305e-20)
(43.4235 4.1814 3.83904e-20)
(43.4924 4.61604 -4.2797e-20)
(43.5491 5.06673 0)
(43.5876 5.53095 0)
(43.6115 6.01205 -1.45592e-19)
(43.6173 6.5063 -2.92244e-19)
(43.6124 7.01235 1.16137e-19)
(43.597 7.53076 -4.27508e-20)
(43.5749 8.05832 9.55452e-20)
(43.5485 8.58709 -5.34094e-20)
(43.5141 9.10255 3.83361e-19)
(43.4232 9.55978 1.46969e-19)
(43.3729 10.0394 -2.97009e-19)
(43.3934 10.6112 -4.25501e-19)
(43.3617 11.1895 2.1837e-19)
(43.2676 11.7006 3.9834e-19)
(43.2425 12.2569 0)
(43.2613 12.854 0)
(43.2404 13.4188 0)
(43.2294 13.9695 -4.04408e-19)
(43.2912 14.5132 -3.09489e-19)
(43.38 15.0656 -2.8185e-19)
(43.4688 15.6014 4.96059e-19)
(43.6227 16.1169 6.06679e-19)
(43.8143 16.6281 -2.42852e-19)
(44.0161 17.1142 8.55453e-19)
(44.2761 17.5868 -5.02373e-19)
(44.5616 18.0185 -6.82941e-19)
(44.8794 18.4342 -8.46568e-19)
(45.264 18.8275 9.43896e-19)
(45.6766 19.1659 0)
(46.2897 19.5847 1.46131e-18)
(46.5436 19.7311 -8.06447e-19)
(46.336 19.6197 1.07795e-18)
(44.5186 18.7898 0)
(38.3878 16.0054 -1.5093e-18)
(23.9102 9.09768 8.6364e-19)
(3.20141 0.0366147 0)
(40.4945 0.240801 -1.75235e-19)
(42.7253 0.172989 0)
(42.7979 0.800425 -4.14937e-19)
(42.8847 0.916019 2.74351e-19)
(42.9572 1.34441 2.4356e-19)
(43.0446 1.61398 -1.01706e-20)
(43.1515 1.92389 1.1319e-20)
(43.2754 2.24616 0)
(43.4142 2.58939 4.0986e-19)
(43.5101 2.97109 -2.94877e-19)
(43.5945 3.30984 -2.76821e-19)
(43.7158 3.67884 3.37596e-19)
(43.8201 4.08499 -2.31885e-19)
(43.9204 4.50715 -5.81003e-20)
(44.0091 4.949 3.26858e-20)
(44.0771 5.40911 0)
(44.1356 5.88348 -3.33615e-19)
(44.1774 6.37264 3.74824e-19)
(44.2054 6.87641 7.20688e-20)
(44.2207 7.3938 -4.66071e-22)
(44.2209 7.92429 6.76127e-20)
(44.1978 8.46449 0)
(44.1589 9.02514 8.6675e-20)
(44.1841 9.67247 3.54442e-19)
(44.1531 10.3024 3.75057e-19)
(44.0086 10.8369 4.27781e-19)
(43.9176 11.3614 0)
(43.9353 11.9579 -2.84652e-19)
(43.9203 12.5172 -6.37698e-19)
(43.8823 13.0215 3.37636e-19)
(43.9081 13.5432 -7.28544e-19)
(43.974 14.0656 -3.52465e-19)
(44.003 14.5822 6.14446e-19)
(44.0429 15.0677 -2.20076e-19)
(44.1718 15.5492 -5.00326e-19)
(44.3084 16.032 -2.46689e-19)
(44.4649 16.481 -3.61984e-19)
(44.6844 16.9177 0)
(44.9152 17.3154 -6.21592e-19)
(45.1836 17.702 1.37716e-18)
(45.4956 18.043 8.55622e-19)
(45.8201 18.3358 -1.01643e-18)
(46.3076 18.6929 1.25756e-18)
(46.5723 18.8553 -6.69801e-19)
(46.5682 18.8369 1.81881e-18)
(45.8104 18.436 -2.03945e-20)
(42.6667 17.0112 0)
(34.137 13.2326 3.03577e-18)
(16.6054 5.24957 -2.54327e-18)
(0.978483 -0.271946 -8.95322e-19)
(40.7618 0.276008 1.75379e-19)
(43.1078 0.147955 -2.60381e-19)
(43.2033 0.757341 2.33806e-19)
(43.3011 0.840374 -2.69781e-19)
(43.3884 1.27449 -1.93278e-19)
(43.533 1.55375 -1.25641e-20)
(43.6699 1.9121 7.10381e-21)
(43.7912 2.27839 0)
(43.9117 2.64295 -3.16964e-19)
(44.0399 3.01642 4.83933e-19)
(44.2054 3.45291 0)
(44.3364 3.9033 -2.88811e-20)
(44.4495 4.35184 7.63153e-21)
(44.5565 4.81521 2.951e-19)
(44.6496 5.29762 -4.21392e-19)
(44.7218 5.79398 -8.59233e-22)
(44.7784 6.3073 5.42024e-20)
(44.814 6.83515 0)
(44.8352 7.37254 -1.80044e-19)
(44.8431 7.91925 3.95971e-19)
(44.8378 8.47155 -4.44413e-20)
(44.8216 9.02092 0)
(44.7997 9.55767 0)
(44.7228 10.0322 -1.6346e-19)
(44.648 10.4864 7.33763e-20)
(44.6687 11.0305 -5.35677e-19)
(44.6799 11.6038 1.88561e-19)
(44.6035 12.0856 -1.06537e-19)
(44.5641 12.5805 3.15811e-19)
(44.5925 13.1264 1.40961e-19)
(44.5891 13.642 4.07854e-19)
(44.5607 14.1282 -4.60261e-19)
(44.599 14.59 2.98666e-19)
(44.6988 15.0587 -2.90218e-19)
(44.7842 15.5121 -3.32417e-19)
(44.9102 15.9271 -3.4618e-19)
(45.0848 16.3288 0)
(45.2522 16.697 8.48843e-19)
(45.4628 17.0534 -3.15366e-19)
(45.6965 17.3554 -7.52273e-19)
(45.9353 17.627 8.9617e-19)
(46.2871 17.9286 -2.20414e-20)
(46.612 18.1507 -6.19961e-19)
(46.686 18.1849 -1.82208e-20)
(46.431 18.0483 -9.17539e-19)
(44.6356 17.2663 -2.17417e-18)
(39.3635 15.0992 1.21497e-18)
(27.3939 10.1356 0)
(7.88275 2.05908 -1.58624e-18)
(-0.692015 -0.158934 3.06154e-18)
(40.9767 0.238961 4.98857e-22)
(43.4872 0.160516 2.61819e-19)
(43.5577 0.795247 -8.58919e-20)
(43.6599 0.87504 -2.86705e-21)
(43.732 1.32394 1.93571e-19)
(43.8482 1.57963 0)
(43.9806 1.88868 0)
(44.1503 2.22732 -1.0203e-20)
(44.3087 2.58031 5.49225e-19)
(44.4522 2.9682 -1.93181e-19)
(44.5687 3.32678 1.54673e-20)
(44.7158 3.70914 -3.49708e-20)
(44.8623 4.13524 1.55128e-19)
(45.0021 4.58487 -1.53505e-19)
(45.1296 5.05538 6.09651e-19)
(45.2352 5.54549 -1.31643e-19)
(45.3282 6.05193 1.50021e-19)
(45.401 6.57429 3.89347e-20)
(45.4583 7.1098 -4.0311e-19)
(45.4984 7.65819 -2.57745e-19)
(45.52 8.21544 5.97044e-22)
(45.518 8.77701 -6.29467e-20)
(45.4966 9.3489 0)
(45.5198 9.98882 -2.49654e-19)
(45.5131 10.6398 4.54092e-22)
(45.3808 11.1928 4.26419e-20)
(45.2563 11.6856 5.78148e-20)
(45.2488 12.2477 1.4414e-19)
(45.2415 12.7931 0)
(45.1855 13.2567 8.75083e-20)
(45.1676 13.7118 4.80971e-19)
(45.2208 14.1623 4.25059e-19)
(45.256 14.6124 -2.13725e-19)
(45.2669 15.0249 4.50384e-19)
(45.3614 15.4139 -3.68514e-19)
(45.4758 15.8033 -2.22451e-19)
(45.5819 16.1568 0)
(45.7464 16.4977 -5.69232e-19)
(45.9195 16.7838 -3.58042e-19)
(46.1047 17.0612 3.99916e-19)
(46.3689 17.3326 -4.64684e-19)
(46.6688 17.5754 5.18297e-19)
(46.7599 17.6444 0)
(46.6156 17.6064 3.86691e-19)
(45.5006 17.1736 0)
(42.0793 15.8189 5.27766e-19)
(33.9094 12.5387 -1.18716e-18)
(18.5024 6.26298 6.63883e-19)
(3.14889 0.725387 0)
(-1.37031 -0.085185 1.98914e-19)
(41.2415 0.25904 7.43519e-23)
(43.8563 0.104478 8.52272e-23)
(43.9571 0.700141 8.83054e-20)
(44.0703 0.743791 4.33919e-22)
(44.1855 1.17738 3.70817e-21)
(44.3469 1.4282 5.69311e-22)
(44.5046 1.79522 -6.337e-22)
(44.6643 2.14334 1.50623e-21)
(44.8333 2.51667 -2.03082e-19)
(45.0092 2.8965 -4.23773e-21)
(45.2159 3.34603 -2.29949e-21)
(45.4091 3.81637 5.20665e-21)
(45.5761 4.28919 1.72978e-19)
(45.744 4.7871 -2.0159e-19)
(45.891 5.30355 -2.43193e-19)
(46.0053 5.83706 1.31622e-19)
(46.0994 6.39012 -1.45046e-19)
(46.1688 6.95758 -6.36716e-21)
(46.2169 7.53577 -7.23474e-21)
(46.2452 8.1209 0)
(46.2497 8.70854 -9.2699e-21)
(46.2338 9.2892 -4.8115e-21)
(46.2054 9.85799 5.38472e-21)
(46.1296 10.37 0)
(46.0093 10.8146 0)
(45.9882 11.3249 2.17639e-19)
(46.0089 11.8971 0)
(45.9333 12.3693 -1.44327e-19)
(45.8462 12.808 0)
(45.8351 13.2957 6.68642e-21)
(45.8242 13.7623 -2.27968e-19)
(45.7595 14.1964 1.61502e-20)
(45.73 14.5876 -3.02368e-19)
(45.8024 14.9771 2.69467e-20)
(45.8631 15.3636 1.6554e-19)
(45.9272 15.7019 2.51381e-19)
(46.0539 16.0223 -8.68133e-21)
(46.1661 16.297 0)
(46.2973 16.573 -5.83272e-21)
(46.4801 16.8142 6.67858e-21)
(46.7113 17.0662 0)
(46.7778 17.1706 -8.50305e-21)
(46.7166 17.2042 -4.25804e-20)
(46.005 16.9768 -3.40205e-19)
(43.7933 16.1481 -6.89462e-21)
(37.9824 13.9084 0)
(26.1977 9.35458 0)
(8.09978 2.4601 9.058e-20)
(-0.0809003 0.224116 -8.98169e-20)
(-1.72301 -0.133606 2.02606e-19)
(41.4149 0.168682 1.86146e-19)
(44.1876 0.082788 2.07327e-19)
(44.2819 0.666554 1.15049e-19)
(44.3834 0.71447 1.3533e-19)
(44.4839 1.13602 1.43183e-19)
(44.6349 1.35102 -1.69646e-19)
(44.82 1.64859 0)
(45.0288 1.98945 0)
(45.2398 2.33625 1.34246e-19)
(45.4352 2.72873 4.23722e-21)
(45.6098 3.09456 -1.69045e-19)
(45.8014 3.4913 -1.193e-20)
(46.0002 3.94019 -2.25811e-19)
(46.1813 4.41262 2.60849e-19)
(46.3562 4.91343 3.26722e-19)
(46.5082 5.44235 0)
(46.6443 5.98838 0)
(46.7549 6.55429 6.36568e-21)
(46.8439 7.13484 7.23307e-21)
(46.9077 7.72927 -3.07375e-19)
(46.9459 8.32875 9.26781e-21)
(46.9543 8.92891 0)
(46.9401 9.53056 0)
(46.9337 10.1697 -5.73295e-20)
(46.925 10.8498 -2.7654e-19)
(46.8012 11.4526 8.01606e-20)
(46.6243 11.935 0)
(46.5399 12.4601 -1.92298e-19)
(46.4984 12.9974 0)
(46.4052 13.4391 -6.68398e-21)
(46.3012 13.8419 0)
(46.2882 14.222 0)
(46.3136 14.6103 8.34159e-20)
(46.2856 14.9712 9.65256e-20)
(46.309 15.2847 0)
(46.3817 15.597 0)
(46.4275 15.8742 8.67634e-21)
(46.5149 16.1557 0)
(46.6375 16.3778 5.82876e-21)
(46.8077 16.6457 -2.22851e-19)
(46.8776 16.8095 2.34855e-19)
(46.877 16.8545 1.6645e-20)
(46.4062 16.7755 9.35048e-21)
(44.8365 16.2306 -3.7903e-19)
(40.4319 14.6082 -2.17004e-19)
(31.0318 11.1012 1.23782e-18)
(14.8183 4.99413 -5.54043e-19)
(2.40391 0.985875 -6.34548e-19)
(-1.73315 0.175532 5.21973e-19)
(-1.7189 -0.0178008 0)
(41.583 0.157007 -1.85384e-19)
(44.4832 -0.000775499 2.47933e-19)
(44.6247 0.495865 -1.12908e-19)
(44.7505 0.50464 1.61632e-19)
(44.8994 0.911091 -1.51849e-19)
(45.0947 1.11247 1.74617e-19)
(45.2951 1.46277 1.35688e-20)
(45.5079 1.78475 -1.51073e-20)
(45.7333 2.14073 -1.15988e-19)
(45.9744 2.51099 -2.02452e-20)
(46.2406 2.96255 1.79618e-19)
(46.5096 3.44793 4.70065e-19)
(46.7424 3.94164 -3.04807e-19)
(46.9744 4.4659 -2.38893e-19)
(47.191 5.01963 -1.08609e-18)
(47.3845 5.59915 4.9507e-20)
(47.538 6.20261 -5.52425e-20)
(47.6501 6.8245 5.47522e-19)
(47.7322 7.46104 7.33108e-20)
(47.7835 8.10457 2.25107e-19)
(47.7968 8.75123 0)
(47.7779 9.38819 0)
(47.7303 10.0148 0)
(47.6329 10.5922 0)
(47.4521 11.0658 2.75967e-19)
(47.3474 11.5554 -7.03114e-19)
(47.3304 12.1371 0)
(47.2354 12.6334 6.24559e-19)
(47.0753 13.0394 0)
(46.9663 13.4695 0)
(46.9115 13.8844 -5.91897e-19)
(46.8106 14.279 3.18309e-19)
(46.687 14.6179 -7.15297e-19)
(46.6862 14.9284 2.06853e-19)
(46.7132 15.2537 0)
(46.7074 15.5335 0)
(46.7707 15.8047 3.02316e-19)
(46.8455 16.011 -1.03321e-18)
(46.945 16.2652 0)
(47.0278 16.483 -6.31214e-19)
(47.0397 16.5464 9.58959e-19)
(46.6624 16.5113 -1.16414e-18)
(45.4591 16.1791 6.61057e-19)
(41.9828 14.9497 -7.68609e-19)
(34.3775 12.1902 1.93824e-18)
(20.5115 7.04997 -1.69163e-18)
(5.49549 1.91476 1.0903e-18)
(-0.764217 0.465589 -2.43452e-18)
(-2.44723 0.146973 2.85872e-18)
(-1.61204 0.081157 -1.85301e-18)
(41.65 0.0513538 -4.39795e-19)
(44.7205 -0.0497599 3.61302e-20)
(44.8459 0.423778 0)
(44.9839 0.406388 -2.94697e-19)
(45.102 0.775939 -7.52228e-19)
(45.3102 0.931429 2.49301e-20)
(45.553 1.20243 0)
(45.8176 1.50406 0)
(46.0909 1.8332 -4.03948e-20)
(46.3588 2.20905 4.49983e-20)
(46.6125 2.57458 -8.9717e-19)
(46.8798 2.97399 5.75384e-19)
(47.1549 3.4405 5.43851e-19)
(47.4129 3.93956 -7.05267e-19)
(47.6478 4.47364 7.25488e-19)
(47.8446 5.04158 1.12724e-19)
(48.0383 5.63838 -1.20863e-18)
(48.2009 6.26433 -1.78623e-18)
(48.3334 6.9093 0)
(48.4304 7.57243 8.04384e-19)
(48.4892 8.24153 9.10303e-19)
(48.5068 8.91227 0)
(48.4886 9.58047 -1.15063e-18)
(48.438 10.2495 0)
(48.4032 10.9768 0)
(48.2784 11.6696 7.00927e-19)
(48.0392 12.1883 4.64415e-19)
(47.8306 12.6903 9.90254e-19)
(47.6971 13.2257 0)
(47.5457 13.6672 0)
(47.3334 14.0441 2.82714e-19)
(47.1901 14.3594 3.43019e-19)
(47.1699 14.6732 1.16844e-18)
(47.112 14.9896 2.13566e-21)
(47.046 15.24 4.66983e-21)
(47.0659 15.4865 -1.08988e-18)
(47.0781 15.685 -1.06521e-20)
(47.1215 15.9395 1.36458e-18)
(47.2063 16.1792 7.51096e-19)
(47.2206 16.2627 4.20268e-19)
(46.8865 16.274 1.03321e-18)
(45.9109 16.0542 2.03006e-20)
(43.1525 15.1615 -1.32822e-18)
(36.8169 12.9002 -7.56906e-19)
(24.5623 8.45418 -2.12867e-18)
(8.34418 2.87674 2.38389e-18)
(0.726435 0.813554 -1.06229e-18)
(-2.11391 0.259623 0)
(-2.53567 0.167491 0)
(-1.37219 0.123454 3.63853e-19)
(41.596 0.00641361 1.3466e-18)
(44.8956 -0.159428 5.5365e-19)
(45.0713 0.197019 -5.90544e-19)
(45.225 0.127997 2.09227e-20)
(45.4252 0.472502 1.50564e-18)
(45.6681 0.596018 -2.68106e-20)
(45.918 0.902928 0)
(46.2008 1.17861 -1.2202e-18)
(46.5069 1.49478 -4.4089e-20)
(46.8219 1.84089 -2.35147e-21)
(47.1726 2.27401 1.92981e-18)
(47.5332 2.76138 -9.72722e-19)
(47.8595 3.26254 3.43491e-21)
(48.1817 3.80915 6.12839e-19)
(48.4857 4.39664 0)
(48.7653 5.02194 0)
(49.0135 5.68439 9.35022e-19)
(49.2203 6.37935 1.39808e-18)
(49.3571 7.09501 0)
(49.4477 7.82706 -8.01808e-19)
(49.4826 8.56885 -9.07116e-19)
(49.4684 9.30299 -2.71993e-19)
(49.4035 10.0256 1.5548e-19)
(49.2683 10.7085 1.10655e-18)
(49.0255 11.276 3.78931e-19)
(48.8083 11.7851 4.14158e-19)
(48.6943 12.3925 -1.33317e-18)
(48.5452 12.9551 -9.58207e-19)
(48.2974 13.3762 1.16264e-18)
(48.0361 13.7676 -1.2674e-18)
(47.8678 14.1221 0)
(47.7282 14.4724 0)
(47.5113 14.7741 2.1196e-20)
(47.3785 14.9969 -8.97202e-19)
(47.3528 15.2396 1.01671e-18)
(47.3009 15.4407 1.70205e-18)
(47.3176 15.6823 -6.22005e-19)
(47.4049 15.904 -1.38797e-18)
(47.407 15.9984 -1.55181e-18)
(47.1145 16.0277 -9.09392e-19)
(46.2922 15.8944 -1.59107e-20)
(44.0739 15.2456 1.17501e-18)
(38.5915 13.3635 0)
(27.2701 9.33474 7.5003e-19)
(11.3282 3.98974 8.38781e-19)
(2.1088 1.37178 9.32039e-19)
(-1.53207 0.678036 3.12995e-18)
(-2.6692 0.436094 -1.165e-18)
(-2.39482 0.329852 0)
(-1.11992 0.161486 0)
(41.4745 -0.0176014 2.3857e-20)
(44.9819 -0.228224 -1.04232e-18)
(45.1567 0.0832637 6.08696e-19)
(45.3241 -0.0104326 -1.40524e-18)
(45.4952 0.26595 -8.24531e-19)
(45.7558 0.331366 -1.28362e-21)
(46.0622 0.549044 3.29136e-20)
(46.4041 0.789186 1.13698e-18)
(46.7509 1.07158 8.98817e-20)
(47.115 1.40799 1.10975e-19)
(47.4651 1.7514 -9.68149e-19)
(47.8246 2.13264 -1.44964e-19)
(48.2029 2.59342 -1.44405e-18)
(48.5656 3.10947 -1.6911e-18)
(48.9067 3.67532 2.41325e-19)
(49.2062 4.2915 -2.69178e-19)
(49.4671 4.94759 0)
(49.69 5.64094 -1.53483e-18)
(49.894 6.37459 0)
(50.0488 7.13462 0)
(50.1486 7.90617 0)
(50.1926 8.68567 -6.09121e-19)
(50.1762 9.46574 1.96772e-18)
(50.0869 10.2282 -1.43801e-18)
(50.0137 11.0378 0)
(49.8814 11.8708 -4.60404e-19)
(49.5778 12.5045 -1.64103e-18)
(49.2178 13.0279 -2.3468e-18)
(48.9168 13.5705 -1.75078e-18)
(48.6596 14.03 1.197e-18)
(48.3396 14.4197 -1.42495e-18)
(48.0036 14.6931 7.84674e-19)
(47.8401 14.9013 1.73368e-18)
(47.7418 15.1395 0)
(47.5928 15.3068 1.07212e-18)
(47.5545 15.4874 -2.2387e-18)
(47.6061 15.6505 -1.28641e-20)
(47.5586 15.7272 1.39248e-18)
(47.3263 15.7681 7.83083e-19)
(46.6082 15.6876 0)
(44.6999 15.189 1.04938e-18)
(39.9246 13.6278 -1.19424e-18)
(29.1771 9.93226 2.67831e-18)
(13.6928 4.88875 0)
(3.56637 2.05588 -3.30665e-18)
(-0.752471 1.27978 9.18213e-19)
(-2.373 1.09014 -1.01961e-18)
(-2.81451 0.971185 -1.14091e-18)
(-2.33187 0.672743 2.55233e-18)
(-0.999101 0.248617 1.736e-21)
(41.2563 -0.0951357 -9.50409e-19)
(44.9854 -0.376056 1.08803e-18)
(45.2271 -0.175159 -1.24091e-18)
(45.4177 -0.318905 2.83623e-18)
(45.6642 -0.0818219 -1.71073e-18)
(45.9723 -0.0572409 1.20139e-19)
(46.2858 0.182105 -1.20472e-18)
(46.6394 0.368299 0)
(47.0272 0.616016 -1.58023e-18)
(47.4365 0.906858 1.98532e-18)
(47.8892 1.29648 7.59252e-21)
(48.3633 1.75332 -1.54455e-19)
(48.8091 2.24039 1.43921e-18)
(49.25 2.78682 -1.27889e-19)
(49.6766 3.39333 1.86593e-18)
(50.0772 4.05911 2.92688e-19)
(50.4433 4.77997 0)
(50.7667 5.55069 1.52793e-18)
(51.0422 6.3607 3.86331e-18)
(51.2213 7.2114 0)
(51.3154 8.08493 0)
(51.3332 8.96454 0)
(51.2709 9.83797 -2.44791e-18)
(51.1116 10.6811 -4.43377e-18)