/*--------------------------------*- C++ -*----------------------------------*\
| =========                 |                                                 |
| \\      /  F ield         | OpenFOAM: The Open Source CFD Toolbox           |
|  \\    /   O peration     | Version:  v1912                                 |
|   \\  /    A nd           | Website:  www.openfoam.com                      |
|    \\/     M anipulation  |                                                 |
\*---------------------------------------------------------------------------*/
FoamFile
{
    version     2.0;
    format      ascii;
    class       volScalarField;
    location    "0.35";
    object      p;
}
// * * * * * * * * * * * * * * * * * * * * * * * * * * * * * * * * * * * * * //

dimensions      [0 2 -2 0 0 0 0];


internalField   nonuniform List<scalar> 
6600
(
103.672
99.2381
97.2062
95.992
95.0434
94.2095
93.4058
92.6498
91.9769
91.4622
90.9774
90.3265
89.6908
89.1244
88.5767
87.9638
87.3431
86.7384
86.1674
85.5686
84.9503
84.3813
83.5682
82.5773
81.4697
80.3677
79.1147
77.6203
75.7029
73.2118
70.289
66.7184
62.2321
56.7662
50.0035
41.4593
30.7419
17.4755
1.26469
-18.4038
-42.1464
-70.6356
-104.694
-145.129
-192.673
-248.338
-312.815
-385.107
-471.247
-566.564
100.811
96.5956
94.9639
93.5418
92.2075
90.9932
89.8997
88.9564
88.1408
87.3565
86.4861
85.4468
84.3106
83.164
82.0915
80.9636
79.6885
78.3185
76.887
75.3975
73.7724
72.03
70.233
68.2271
65.9069
63.3101
60.364
57.0235
53.1905
48.568
43.1168
36.908
29.5896
20.9381
10.7947
-1.3498
-16.0386
-33.6225
-54.4964
-79.2354
-108.472
-142.751
-183.11
-230.284
-284.924
-348.073
-420.341
-500.722
-592.901
-693.97
97.0564
92.9353
91.5638
89.965
88.4709
87.109
85.8789
84.7316
83.5919
82.3252
80.9851
79.6306
78.1812
76.5754
74.7422
72.8364
70.8433
68.7222
66.4532
64.0091
61.4024
58.5328
55.3513
51.8965
48.2456
44.1468
39.4969
34.1361
28.1657
21.3449
13.4016
4.3106
-6.11366
-18.1217
-31.9396
-47.9912
-66.8195
-88.9696
-114.72
-144.661
-179.548
-219.729
-266.425
-320.108
-381.512
-451.641
-530.914
-618.145
-713.219
-813.722
92.8895
88.6716
87.5286
85.7291
84.1645
82.7063
81.3613
79.967
78.4385
76.7857
74.9787
73.0872
71.1222
69.1027
66.8248
64.2111
61.3493
58.31
55.0848
51.5891
47.7558
43.61
39.1137
34.1902
28.7965
22.8833
16.3194
8.96695
0.67745
-8.59323
-19.0764
-31.0044
-44.6456
-60.222
-77.8662
-98.0581
-121.213
-148.069
-178.842
-214.095
-254.526
-300.653
-353.24
-412.908
-480.358
-556.459
-641.4
-733.198
-829.364
-926.616
88.271
84.0076
83.118
81.1494
79.527
77.9673
76.3797
74.6271
72.6564
70.6352
68.539
66.2089
63.6195
60.7704
57.8059
54.6368
51.0817
47.1004
42.791
38.214
33.2387
27.7334
21.57
14.8905
7.71295
-0.110077
-8.78437
-18.4539
-29.1595
-41.0168
-54.2586
-69.2031
-86.0491
-105.173
-126.781
-151.159
-178.802
-210.256
-245.882
-286.229
-331.916
-383.505
-441.399
-506.139
-578.397
-658.974
-747.822
-842.556
-938.78
-1031.43
83.3132
79.1121
78.4642
76.2683
74.5382
72.8126
70.8981
68.7984
66.5039
63.9975
61.3295
58.4734
55.3951
51.9461
48.0551
43.9346
39.539
34.676
29.225
23.2937
16.9255
10.0902
2.59265
-5.81187
-15.0755
-25.0266
-35.866
-47.8448
-61.0757
-75.7308
-91.9399
-109.953
-130.112
-152.76
-178.15
-206.666
-238.714
-274.603
-314.782
-359.773
-410.119
-466.249
-528.448
-597.181
-672.892
-756.22
-847.303
-943.69
-1039.06
-1125.49
78.1388
73.9679
73.53
71.0345
69.2333
67.2216
64.9273
62.4294
59.7819
56.9087
53.6554
50.0412
46.1222
41.9121
37.3274
32.2238
26.6707
20.71
14.2355
7.23416
-0.715917
-9.27488
-18.5689
-28.6627
-39.6814
-51.8682
-65.1456
-79.5364
-95.3537
-112.801
-132.066
-153.299
-176.741
-202.81
-231.849
-264.179
-300.143
-340.029
-384.209
-433.176
-487.332
-547.019
-612.45
-683.872
-761.625
-846.298
-938.237
-1035.02
-1128.23
-1206.15
72.7602
68.7301
68.3091
65.3857
63.6157
61.3014
58.6467
55.7642
52.6078
49.1187
45.2793
41.0388
36.4213
31.1789
25.5371
19.4092
12.6976
5.33123
-2.5972
-11.017
-20.2665
-30.3755
-41.3942
-53.4886
-66.6307
-80.8133
-96.3992
-113.374
-131.88
-152.087
-174.221
-198.557
-225.296
-254.676
-287.034
-322.757
-362.156
-405.468
-452.986
-505.046
-562.036
-624.197
-691.681
-764.7
-843.376
-928.148
-1019.46
-1115.04
-1204.57
-1272.01
67.1353
63.4324
62.8708
59.5546
57.8494
55.1203
52.0727
48.9547
45.237
41.1019
36.4695
31.3828
25.8795
19.8532
13.1589
5.82133
-2.10721
-10.721
-20.1367
-30.3757
-41.2955
-53.2385
-66.1814
-80.1272
-95.3978
-111.879
-129.71
-149.118
-170.193
-193.127
-218.131
-245.355
-275.048
-307.491
-342.913
-381.567
-423.744
-469.701
-519.739
-574.128
-633.008
-696.589
-765.019
-838.404
-916.934
-1000.95
-1090.49
-1182.94
-1267.4
-1323.05
61.2268
58.0069
57.2038
53.8878
52.3704
48.9396
45.6394
41.93
37.6822
32.9234
27.6322
21.7462
15.1866
8.02639
0.235001
-8.30042
-17.6193
-27.7038
-38.5982
-50.4222
-63.2385
-76.9319
-91.859
-108.017
-125.291
-144.061
-164.289
-186.136
-209.723
-235.202
-262.773
-292.675
-325.071
-360.131
-398.084
-439.165
-483.607
-531.622
-583.387
-639.09
-698.972
-763.115
-831.568
-904.448
-981.835
-1064.08
-1150.72
-1238.75
-1316.74
-1360.41
55.4914
52.7184
51.7446
48.7577
46.6725
43.0612
39.4155
35.1249
30.2814
24.8261
18.7233
12.0091
4.60206
-3.60393
-12.5833
-22.3565
-33.0079
-44.5442
-57.0834
-70.5971
-85.2774
-101.14
-118.079
-136.265
-155.743
-176.658
-199.149
-223.309
-249.271
-277.231
-307.279
-339.555
-374.258
-411.563
-451.621
-494.6
-540.661
-589.949
-642.721
-699.123
-759.146
-822.913
-890.511
-961.962
-1037.31
-1116.88
-1200.41
-1283.34
-1353.6
-1386.42
50.342
48.099
47.2067
44.0728
41.5583
37.6894
33.5866
28.786
23.2873
17.1478
10.2898
2.63351
-5.79536
-15.0542
-25.1856
-36.2273
-48.2525
-61.3091
-75.3792
-90.6183
-106.937
-124.56
-143.577
-163.932
-185.67
-208.796
-233.534
-259.964
-288.195
-318.29
-350.454
-384.835
-421.517
-460.624
-502.295
-546.644
-593.803
-643.927
-697.06
-753.32
-812.865
-875.65
-941.65
-1010.96
-1083.6
-1159.63
-1238.82
-1316.39
-1379.62
-1403.82
46.0626
44.2695
43.1027
39.9812
37.2219
33.0313
28.4074
23.0515
16.9768
10.0777
2.41196
-6.05868
-15.4242
-25.7123
-36.9877
-49.2849
-62.5865
-77.0711
-92.7519
-109.638
-127.873
-147.429
-168.204
-190.409
-214.171
-239.475
-266.342
-294.843
-325.164
-357.374
-391.513
-427.658
-465.957
-506.511
-549.376
-594.672
-642.453
-692.71
-745.642
-801.313
-859.659
-920.745
-984.538
-1050.97
-1120.22
-1192.38
-1266.27
-1337.93
-1395.11
-1413.69
42.8542
41.3876
40.0484
36.7241
33.6637
29.1755
24.2451
18.3792
11.6963
4.17868
-4.27418
-13.6445
-23.9737
-35.2808
-47.6092
-61.0983
-75.7532
-91.5752
-108.699
-127.126
-146.898
-168.133
-190.903
-215.071
-240.728
-268.025
-296.952
-327.557
-359.761
-393.697
-429.512
-467.232
-506.898
-548.56
-592.278
-638.056
-685.969
-736.138
-788.439
-842.917
-899.685
-958.629
-1019.7
-1082.81
-1147.93
-1215.01
-1282.13
-1345.26
-1393.13
-1409.62
41.0792
39.6476
38.3041
34.8338
31.4897
26.5993
21.2841
15.0043
7.78423
-0.331612
-9.3939
-19.475
-30.6195
-42.9094
-56.3145
-70.8763
-86.7304
-103.905
-122.444
-142.433
-163.887
-186.662
-211.003
-236.995
-264.577
-293.715
-324.454
-356.864
-390.967
-426.72
-464.046
-503.056
-543.836
-586.39
-630.671
-676.756
-724.613
-774.131
-825.458
-878.52
-933.217
-989.559
-1047.38
-1106.62
-1166.97
-1228.04
-1286.45
-1337
-1369.42
-1383.28
40.795
39.1498
37.6177
34.225
30.7627
25.7369
20.0841
13.4525
5.84632
-2.79291
-12.4602
-23.2202
-35.0766
-48.1262
-62.4599
-78.0917
-95.0458
-113.384
-133.203
-154.535
-177.46
-202.061
-228.132
-255.791
-285.096
-316.092
-348.741
-382.909
-418.581
-455.836
-494.649
-534.942
-576.685
-619.888
-664.592
-710.681
-758.144
-807.072
-857.213
-908.517
-960.982
-1014.47
-1068.77
-1123.48
-1178.97
-1232.75
-1281.05
-1317.04
-1332.73
-1342.25
42.3656
40.6585
38.8206
35.1394
31.5806
26.4284
20.6672
13.7456
5.84231
-3.07758
-13.106
-24.3209
-36.7798
-50.4886
-65.5339
-82.0019
-99.9661
-119.449
-140.502
-163.114
-187.352
-213.372
-241.176
-270.652
-301.726
-334.422
-368.756
-404.733
-442.231
-481.042
-521.167
-562.62
-605.341
-649.271
-694.287
-740.411
-787.589
-835.655
-884.661
-934.326
-984.42
-1034.91
-1085.63
-1136.08
-1185.82
-1231.97
-1271.41
-1298.37
-1307.16
-1310.95
45.6337
43.8226
41.8407
38.0082
34.2174
28.9211
23.1185
16.1546
8.10987
-1.05227
-11.3581
-22.8362
-35.611
-49.7711
-65.3511
-82.4403
-101.109
-121.436
-143.511
-167.404
-193.014
-220.381
-249.705
-280.859
-313.844
-348.513
-384.744
-422.413
-461.538
-502.03
-543.688
-586.39
-630.07
-674.631
-720.12
-766.376
-813.186
-860.594
-908.404
-956.51
-1004.67
-1052.55
-1099.81
-1147.25
-1191.82
-1231.23
-1262.57
-1282.51
-1293.05
-1293.01
50.2088
48.1051
46.3242
42.6067
38.639
33.3413
27.4824
20.5396
12.5204
3.38734
-6.97546
-18.6311
-31.5904
-45.9703
-61.8542
-79.355
-98.5648
-119.544
-142.317
-167.047
-193.856
-222.691
-253.45
-286.222
-320.885
-357.381
-395.641
-435.477
-476.582
-518.837
-562.156
-606.327
-651.221
-696.773
-742.792
-789.203
-836.002
-883.036
-930.214
-977.088
-1023.45
-1069.51
-1114.75
-1158.53
-1199.33
-1234.87
-1260.06
-1270.66
-1277.29
-1277.93
56.3771
53.2382
51.7134
48.4126
44.8025
39.4002
33.7221
26.798
18.9482
9.96692
-0.233518
-11.7827
-24.7311
-39.1341
-55.1089
-72.7286
-92.1426
-113.509
-136.928
-162.353
-189.907
-219.744
-251.903
-286.35
-322.913
-361.443
-401.722
-443.623
-486.954
-531.375
-576.637
-622.634
-669.122
-715.798
-762.707
-809.879
-856.898
-903.605
-950.135
-996.527
-1042.3
-1087.01
-1130.89
-1172.24
-1209.38
-1239.26
-1258.41
-1267.15
-1267.58
-1269.23
63.1048
60.0791
58.3526
54.8722
51.7272
46.9381
41.6126
34.9965
27.3992
18.5859
8.61841
-2.63749
-15.3333
-29.5435
-45.3759
-62.9533
-82.3304
-103.647
-127.178
-153.091
-181.32
-212.001
-245.211
-280.911
-319.159
-359.799
-402.508
-446.923
-492.78
-539.771
-587.531
-635.719
-684.075
-732.499
-780.744
-828.593
-876.187
-923.465
-970.214
-1016.2
-1061.37
-1105.48
-1147.25
-1186.22
-1221.11
-1246.27
-1256.69
-1262.44
-1262.26
-1263.22
69.746
67.2885
65.6292
62.7671
59.7359
55.6347
50.8455
44.7774
37.5827
29.1844
19.5537
8.67083
-3.61615
-17.4309
-32.8313
-50.0428
-69.2331
-90.4493
-113.799
-139.572
-168.057
-199.328
-233.413
-270.42
-310.25
-352.748
-397.779
-444.977
-493.792
-543.768
-594.479
-645.521
-696.546
-747.103
-796.97
-846.349
-895.145
-942.873
-989.603
-1036.07
-1081.8
-1124.65
-1164.42
-1201.13
-1230.35
-1248.56
-1258.09
-1258.19
-1258.87
-1259
75.71
74.4348
73.1849
71.0727
68.481
64.8629
60.6457
55.2427
48.7191
40.9953
31.9539
21.6061
9.89001
-3.32124
-18.1501
-34.6347
-53.0684
-73.7815
-96.9151
-122.542
-150.859
-182.157
-216.678
-254.539
-295.775
-340.282
-387.697
-437.688
-489.854
-543.48
-597.884
-652.45
-706.577
-759.935
-812.398
-863.515
-913.351
-962.371
-1010.05
-1056.36
-1101.43
-1144.15
-1181.08
-1213.49
-1238.87
-1249.4
-1254.54
-1255.18
-1255.89
-1256.01
80.8925
80.1366
80.0759
78.8569
77.3441
74.5367
70.9709
66.2045
60.4763
53.5792
45.3936
35.8329
24.8608
12.4004
-1.67279
-17.4613
-35.0829
-54.7599
-76.9263
-101.844
-129.755
-160.952
-195.614
-233.86
-275.975
-322.101
-372.029
-425.122
-480.807
-538.444
-597.123
-655.956
-714.252
-771.439
-826.822
-880.252
-932.13
-982.288
-1030.49
-1076.63
-1121.15
-1163.27
-1199.85
-1226.07
-1240.79
-1251.12
-1252.15
-1253.53
-1254.2
-1254.42
83.2192
84.8894
85.2381
85.3116
85.2353
83.7072
81.1975
77.3764
72.5295
66.4528
59.0981
50.3889
40.3189
28.8436
15.9084
1.23289
-15.3654
-34.03
-55.0776
-78.8575
-105.711
-136.028
-170.26
-208.706
-251.5
-298.685
-350.491
-406.688
-466.332
-528.531
-592.291
-656.494
-719.934
-781.439
-840.817
-897.788
-951.379
-1002.7
-1052.67
-1099.58
-1142.24
-1183.42
-1217.54
-1237.8
-1247.51
-1251.02
-1252.54
-1253.44
-1253.88
-1254.1
83.0591
87.2814
89.0489
91.4338
92.529
92.3223
91.1171
88.4416
84.5264
79.2848
72.7811
64.9973
55.9095
45.4577
33.5998
20.145
5.01234
-12.1732
-31.6966
-53.998
-79.4246
-108.461
-141.564
-179.277
-222.028
-270.185
-323.792
-382.64
-446.184
-513.373
-582.978
-653.308
-722.875
-790.511
-854.996
-915.634
-972.429
-1025.51
-1075.27
-1121.99
-1163.21
-1201.42
-1234.22
-1246.84
-1253.04
-1254.01
-1254.61
-1254.58
-1254.46
-1254.38
78.8409
88.71
90.5591
95.3134
98.5102
100.035
100.367
98.9764
96.183
91.9623
86.3845
79.4752
71.3099
61.8371
51.0618
38.9797
25.2006
9.61097
-8.07182
-28.3107
-51.715
-78.9339
-110.506
-146.933
-188.773
-236.655
-291.211
-352.554
-420.085
-492.618
-568.64
-646.45
-723.876
-798.812
-869.374
-935.483
-996.372
-1050.7
-1099.58
-1145.44
-1188.54
-1220.3
-1240.38
-1255.16
-1255.81
-1256.47
-1256.15
-1255.38
-1254.64
-1254.01
70.8366
85.8837
89.5632
98.0783
103.284
106.826
108.908
108.863
107.308
104.159
99.5374
93.4515
86.1131
77.5946
67.7431
57.0241
44.8401
30.9701
15.1441
-2.89771
-23.7888
-48.2964
-77.3867
-111.896
-152.506
-199.683
-254.189
-316.996
-388.057
-466.155
-549.571
-635.899
-722.509
-806.593
-885.433
-957.369
-1022.74
-1079.72
-1127.68
-1169.93
-1207.75
-1235.75
-1248.5
-1254.53
-1256.56
-1257.26
-1256.88
-1255.77
-1254.48
-1253.34
57.3182
79.5368
87.2114
97.9429
106.197
112.315
116.743
117.982
117.717
115.803
112.347
107.055
100.457
92.7359
83.6732
73.6133
62.9736
51.0883
37.4469
21.6142
3.24235
-18.3791
-44.2838
-75.7263
-113.792
-159.386
-213.285
-276.6
-350.56
-434.503
-525.961
-622.195
-719.943
-815.136
-903.687
-983.999
-1054.36
-1112.89
-1162.91
-1200.78
-1231.32
-1243.69
-1252.55
-1253.91
-1256.77
-1258.29
-1258.27
-1257.04
-1255.39
-1254.03
34.8039
68.6132
80.0269
95.814
107.351
116.196
122.697
126.479
127.925
126.799
123.91
119.905
113.939
106.747
98.5044
88.6517
79.3783
69.3716
57.6692
44.4429
28.977
10.2866
-12.4468
-40.485
-75.5179
-118.694
-171.017
-233.922
-309.463
-399.049
-499.746
-607.408
-718.589
-826.752
-927.205
-1017.49
-1091.21
-1147.36
-1189.54
-1227.25
-1247.72
-1256.97
-1254.67
-1256.44
-1259.21
-1261.28
-1261.7
-1259.99
-1257.74
-1256.18
126.178
121.602
119.412
118.064
117.425
117.218
117.164
117.306
117.749
118.526
119.635
121.071
122.785
124.761
126.999
129.494
132.292
135.42
138.882
142.682
146.841
151.193
155.699
160.43
165.29
170.372
175.322
180.486
185.489
190.118
194.265
197.701
200.029
201.117
200.876
198.977
194.98
188.521
179.084
165.963
148.514
126.131
98.2729
64.2044
23.0615
-26.2439
-84.1002
-150.018
-229.808
-315.071
123.367
118.77
117.297
115.875
114.969
114.566
114.334
114.317
114.607
115.247
116.162
117.379
118.883
120.657
122.678
124.923
127.385
130.046
132.883
135.977
139.416
143.133
146.869
150.693
154.557
158.56
162.356
166.105
169.762
172.927
175.271
176.656
176.808
175.396
172.279
167.282
159.983
149.911
136.49
119.105
97.1473
69.9239
36.7335
-3.1666
-50.5376
-106.552
-171.286
-244.403
-329.462
-418.967
119.601
114.972
114.317
112.922
111.884
111.26
110.893
110.804
111.027
111.558
112.343
113.359
114.624
116.152
117.933
119.966
122.259
124.75
127.39
129.999
132.612
135.462
138.452
141.504
144.496
147.437
150.179
152.208
153.91
155.102
155.472
154.684
152.505
148.55
142.528
134.214
123.325
109.383
91.8548
70.0576
43.2482
10.875
-27.651
-73.1805
-126.491
-188.468
-259.363
-338.295
-425.483
-513.688
115.285
110.694
110.613
108.879
108.002
107.283
106.813
106.647
106.772
107.181
107.824
108.731
109.885
111.199
112.69
114.342
116.204
118.254
120.609
123.066
125.318
127.427
129.563
131.668
133.632
135.168
136.625
137.435
137.274
136.297
134.326
131.094
126.374
119.776
110.85
99.2464
84.6458
66.6783
44.753
18.3937
-13.0133
-50.1972
-93.7611
-144.363
-202.692
-269.576
-345.113
-427.72
-515.383
-599.821
110.62
105.909
106.132
103.984
103.2
102.439
101.918
101.679
101.713
101.988
102.453
103.133
104.03
105.124
106.399
107.803
109.288
110.805
112.358
114.166
115.959
117.635
119.103
120.291
121.161
121.567
121.347
120.391
118.414
115.415
111.226
105.513
98.0445
88.5505
76.593
61.7141
43.5419
21.7046
-4.21884
-34.8087
-70.6476
-112.208
-160.002
-214.651
-276.677
-346.814
-425.109
-509.389
-596.313
-675.728
105.47
100.614
100.886
98.443
97.7165
96.9037
96.3115
95.9636
95.8566
95.9316
96.1963
96.6314
97.2003
97.8757
98.6852
99.634
100.694
101.816
102.853
103.848
104.761
105.572
106.193
106.391
105.995
105.001
103.342
100.782
97.1767
92.1723
85.67
77.5165
67.4009
55.0238
40.0464
22.0563
0.566101
-24.8099
-54.432
-88.6437
-127.937
-172.895
-223.916
-281.348
-345.601
-417.3
-496.541
-581.19
-666.213
-738.912
99.7114
94.6844
94.9565
92.3658
91.6042
90.6994
90.0339
89.5756
89.2588
89.1141
89.0684
89.1497
89.3688
89.692
90.0752
90.4502
90.8294
91.1706
91.503
91.7697
91.871
91.6063
91.0701
90.1639
88.6776
86.3361
83.0137
78.6977
73.1751
66.2842
57.7137
47.2097
34.5729
19.4537
1.60288
-19.278
-43.6316
-71.8724
-104.317
-141.401
-183.454
-230.725
-283.58
-342.368
-407.356
-479.053
-557.699
-641.149
-722.605
-786.637
93.3423
88.3275
88.3377
85.7779
85.0567
83.9633
83.1189
82.4774
81.9809
81.5813
81.3006
81.045
80.782
80.5502
80.3733
80.1939
79.9815
79.6823
79.1288
78.4219
77.4904
76.1906
74.3737
71.9914
68.9749
65.1688
60.5365
54.6074
47.259
38.3978
27.7833
15.1673
0.264237
-17.1795
-37.4375
-60.7832
-87.5324
-118.042
-152.643
-191.554
-235.091
-283.572
-337.168
-396.057
-460.501
-531.012
-607.545
-687.869
-764.113
-817.485
85.7272
81.1551
81.0017
78.3725
77.6853
76.4846
75.5771
74.7717
74.0378
73.3644
72.7327
72.1501
71.5936
70.9401
70.1592
69.2348
68.1626
67.0045
65.6896
64.037
61.9748
59.4899
56.5048
52.8462
48.3771
42.9506
36.4871
28.7919
19.7605
9.15648
-3.3064
-17.8553
-34.7225
-54.1537
-76.3591
-101.571
-130.091
-162.135
-197.932
-237.829
-281.975
-330.449
-383.473
-441.253
-503.951
-572.037
-645.25
-720.925
-790.063
-830.867
77.5903
73.2118
72.9317
70.3493
69.6038
68.1618
67.1486
66.1833
65.2139
64.2692
63.3013
62.266
61.1554
60.0102
58.7808
57.378
55.7221
53.6874
51.327
48.612
45.4889
41.805
37.4574
32.379
26.4332
19.6423
11.6397
2.47244
-8.21961
-20.5158
-34.6576
-50.8722
-69.3193
-90.2375
-113.855
-140.359
-169.921
-202.791
-239.133
-279.035
-322.695
-370.279
-421.828
-477.454
-537.344
-601.881
-671.001
-740.86
-801.259
-830.205
68.2617
64.718
64.2421
61.8216
61.0203
59.4248
58.2237
56.9518
55.6311
54.2515
52.837
51.3748
49.787
48.0035
46.0061
43.8245
41.455
38.8207
35.6991
32.062
27.841
23.0589
17.6853
11.4696
4.3778
-3.89919
-13.4201
-24.1186
-36.2248
-49.9541
-65.5574
-83.0987
-102.803
-124.801
-149.267
-176.424
-206.465
-239.393
-275.325
-314.492
-356.93
-402.621
-451.663
-504.182
-560.267
-620.17
-684.163
-747.99
-800.71
-820.513
58.7457
55.5156
55.1418
52.859
51.8928
50.0588
48.6351
47.0671
45.3891
43.6087
41.6617
39.5374
37.3169
34.9544
32.376
29.4803
26.1947
22.5863
18.6391
14.2498
9.21566
3.33905
-3.25417
-10.6102
-18.935
-28.1754
-38.4589
-50.303
-63.636
-78.6404
-95.346
-113.864
-134.305
-156.905
-181.816
-209.059
-238.775
-271.191
-306.274
-343.952
-384.318
-427.437
-473.249
-521.771
-573.08
-627.714
-685.026
-742.084
-789.048
-805.155
48.2301
45.8353
45.544
43.383
42.4609
40.474
38.7764
36.8138
34.6925
32.4411
30.029
27.3989
24.4567
21.2497
17.807
14.1249
10.1321
5.66931
0.72046
-4.71266
-10.5666
-17.0449
-24.4298
-32.6548
-41.8491
-52.1857
-63.7452
-76.4576
-90.4912
-106.179
-123.484
-142.594
-163.542
-186.305
-211.051
-237.973
-267.088
-298.245
-331.535
-367.115
-404.947
-444.888
-486.841
-530.734
-576.422
-624.534
-673.686
-721.22
-758.967
-775.585
38.0899
36.0862
35.7298
33.6019
32.5718
30.4356
28.6006
26.3702
23.894
21.1331
18.1105
14.89
11.4426
7.66238
3.47177
-1.12261
-6.07498
-11.3847
-17.1588
-23.4922
-30.4766
-38.0544
-46.2409
-55.371
-65.3097
-76.1179
-88.1464
-101.481
-116.249
-132.343
-149.899
-169.041
-189.867
-212.511
-236.884
-262.918
-290.741
-320.512
-352.04
-385.093
-419.665
-455.829
-493.395
-531.917
-571.753
-612.21
-651.33
-685.211
-707.058
-721.851
27.6147
26.4817
26.1902
24.1198
23.0082
20.5502
18.4106
15.8321
12.9998
9.866
6.37882
2.49747
-1.70702
-6.22032
-11.0314
-16.2427
-21.9521
-28.1346
-34.7969
-41.9351
-49.6132
-58.0218
-67.1236
-76.8258
-87.5345
-99.3759
-112.053
-125.715
-140.542
-156.716
-174.305
-193.359
-213.881
-235.808
-259.274
-284.341
-310.852
-338.551
-367.503
-397.776
-429.189
-461.405
-494.244
-527.377
-560.816
-592.868
-621.365
-641.978
-649.314
-657.849
18.2494
17.3863
17.0814
14.9299
13.8392
11.1787
8.80636
5.78879
2.42671
-1.25444
-5.23147
-9.53159
-14.2483
-19.4221
-25.0279
-31.0025
-37.3922
-44.2866
-51.7069
-59.7422
-68.3311
-77.4706
-87.3569
-98.0012
-109.21
-121.115
-134.072
-148.153
-163.221
-179.33
-196.632
-215.189
-235.044
-256.268
-278.734
-302.348
-327.09
-353.034
-379.912
-407.377
-435.275
-463.593
-491.887
-519.934
-546.81
-570.927
-589.977
-601.669
-608.046
-611.496
9.84525
9.44699
8.88616
6.56287
5.26827
2.28057
-0.311219
-3.64788
-7.36202
-11.5415
-16.1624
-21.1675
-26.5339
-32.2643
-38.4659
-45.1555
-52.289
-59.8799
-67.9631
-76.5598
-85.7845
-95.6459
-105.987
-117.019
-128.985
-141.664
-154.951
-168.958
-184.036
-200.039
-217
-235.046
-254.188
-274.329
-295.553
-317.896
-341.185
-365.006
-389.283
-414.079
-439.202
-464.258
-488.624
-512.274
-534.164
-552.207
-563.664
-568.24
-576.227
-579.124
2.36993
2.30818
1.69584
-0.737093
-2.15178
-5.60561
-8.56059
-12.4057
-16.5249
-21.0599
-26.044
-31.5491
-37.5797
-44.0787
-50.9782
-58.3533
-66.2389
-74.5944
-83.4679
-92.8338
-102.687
-113.116
-124.237
-135.782
-147.714
-160.411
-173.952
-188.14
-202.989
-218.657
-235.229
-252.603
-270.886
-290.192
-310.415
-331.297
-352.784
-375.051
-397.778
-420.445
-442.913
-465.008
-486.732
-506.968
-525.007
-539.148
-545.912
-547.989
-550.646
-555.019
-3.55492
-3.66226
-4.44717
-7.08293
-8.46539
-12.078
-15.2754
-19.5796
-24.2478
-29.3922
-34.9886
-41.0383
-47.5761
-54.6815
-62.3017
-70.3864
-79.003
-88.1285
-97.7063
-107.776
-118.334
-129.296
-140.675
-152.696
-165.379
-178.401
-191.773
-205.942
-220.638
-235.89
-251.824
-268.585
-286.103
-304.319
-323.321
-343.242
-363.777
-384.458
-405.302
-426.493
-447.506
-467.618
-486.504
-503.997
-518.544
-528.417
-532.51
-536.86
-536.091
-539.222
-8.06462
-8.34738
-8.65659
-11.5409
-13.3841
-17.1355
-20.5769
-25.176
-30.1889
-35.7805
-41.9436
-48.6804
-55.9596
-63.7413
-72.0955
-80.9757
-90.3516
-100.297
-110.78
-121.711
-133.045
-144.85
-156.981
-169.278
-181.961
-195.191
-208.809
-222.67
-236.979
-251.865
-267.215
-283.092
-299.692
-317.155
-335.415
-354.139
-373.289
-393.023
-413.194
-433.454
-452.86
-470.734
-487.614
-502.566
-513.284
-517.612
-521.342
-523.513
-525.389
-526.704
-10.18
-11.1569
-11.5044
-14.438
-16.7551
-20.654
-24.4393
-29.2906
-34.7084
-40.7878
-47.4206
-54.6567
-62.5098
-70.9714
-80.0475
-89.7594
-100.001
-110.747
-122.039
-133.843
-146.053
-158.583
-171.519
-184.824
-198.2
-211.583
-225.171
-238.942
-253
-267.285
-281.969
-297.121
-312.809
-329.096
-346.149
-364.267
-383.102
-402.067
-421.175
-440.591
-459.514
-476.143
-489.814
-501.007
-508.348
-511.02
-513.436
-514.967
-517.427
-518.272
-10.7519
-12.0205
-12.7415
-15.8741
-18.4681
-22.4936
-26.7628
-31.8908
-37.5752
-44.0658
-51.1941
-58.9463
-67.3545
-76.4363
-86.1807
-96.6425
-107.814
-119.556
-131.829
-144.629
-157.891
-171.518
-185.228
-199.103
-213.207
-227.32
-241.312
-255.197
-268.929
-282.671
-296.522
-310.611
-325.246
-340.632
-356.888
-373.888
-391.757
-410.448
-429.61
-448.717
-466.977
-482.404
-493.335
-498.34
-500.324
-504.92
-507.235
-509.824
-512.033
-512.768
-9.62293
-11.4979
-12.2858
-15.6869
-18.8012
-23.1095
-27.705
-33.1623
-39.1718
-45.8691
-53.3299
-61.477
-70.3735
-80.0609
-90.481
-101.629
-113.536
-126.201
-139.513
-153.39
-167.757
-182.546
-197.836
-213.088
-228.066
-242.859
-257.315
-271.422
-285.15
-298.471
-311.641
-324.88
-338.31
-352.269
-366.905
-382.823
-400.324
-418.894
-437.789
-456.785
-475.146
-490.809
-499.34
-498.448
-498.233
-499.978
-503.518
-506.683
-508.811
-509.51
-7.28796
-10.6098
-11.4421
-14.5463
-17.609
-22.0867
-26.9243
-32.5777
-38.9572
-46.0335
-53.846
-62.4013
-71.6381
-81.8417
-92.9291
-104.834
-117.573
-131.152
-145.529
-160.636
-176.343
-192.508
-208.892
-225.548
-242.085
-258.125
-273.621
-288.313
-302.137
-315.248
-327.66
-339.603
-351.555
-363.932
-377.329
-391.69
-407.704
-425.808
-445.598
-465.881
-484.162
-497.638
-503.924
-503.802
-501.874
-501.564
-503.659
-505.62
-506.884
-507.367
-3.79552
-7.79959
-8.95959
-12.4504
-15.7229
-20.2406
-25.2329
-31.051
-37.612
-44.8884
-52.9191
-61.818
-71.4516
-82.0446
-93.6142
-106.127
-119.6
-134.04
-149.428
-165.726
-182.914
-200.842
-219.125
-237.39
-255.441
-273.06
-289.892
-305.703
-320.191
-333.244
-345.186
-356.201
-366.66
-377.093
-387.773
-399.917
-414.247
-431.238
-450.799
-472.979
-493.154
-504.29
-503.949
-506.127
-504.404
-504.289
-504.603
-505.31
-505.982
-506.085
0.378372
-3.63902
-5.81891
-9.19307
-12.5911
-17.3586
-22.6182
-28.7427
-35.4977
-42.8988
-51.0592
-60.0985
-70.0671
-80.951
-92.9333
-105.978
-120.113
-135.4
-151.844
-169.42
-187.95
-207.336
-227.589
-248.007
-268.178
-287.834
-306.583
-323.931
-339.555
-353.232
-364.811
-374.605
-383.125
-391.15
-399.697
-408.622
-419.315
-433.072
-451.146
-474.092
-495.683
-506.87
-507.965
-504.961
-506.08
-506.182
-506.148
-506.004
-506.005
-505.756
4.08458
1.3275
-1.7648
-5.69368
-9.28201
-13.8804
-19.0611
-25.1594
-31.9731
-39.5801
-47.9936
-57.237
-67.434
-78.5489
-90.8212
-104.24
-118.919
-134.88
-152.226
-171.015
-191.166
-212.448
-234.48
-257.188
-279.952
-302.185
-323.377
-343.006
-360.421
-375.064
-386.932
-396.129
-403
-408.102
-412.682
-417.827
-423.446
-432.631
-449.748
-468.721
-484.739
-496.882
-506.452
-505.796
-508.479
-509.646
-509.617
-508.869
-508.206
-507.441
6.75909
5.52153
2.65566
-0.937019
-4.52997
-9.08911
-14.2594
-20.5478
-27.6038
-35.5087
-44.1753
-53.6981
-64.116
-75.5266
-88.0153
-101.729
-116.767
-133.416
-151.542
-171.381
-192.53
-215.553
-239.732
-264.9
-290.449
-315.762
-340.129
-362.698
-382.691
-399.402
-412.202
-420.992
-425.757
-427.552
-428.866
-430.054
-429.951
-431.172
-440.815
-458.334
-467.376
-483.442
-494.966
-505.208
-511.986
-516.256
-517.041
-515.854
-514.436
-512.971
6.21775
11.9953
5.2839
3.41002
0.482316
-3.9166
-9.08094
-15.6699
-22.9597
-31.0285
-39.7969
-49.5482
-60.1682
-71.6031
-84.2684
-98.3683
-113.589
-130.587
-149.574
-170.311
-192.837
-217.152
-243.334
-270.98
-299.666
-328.302
-356.335
-382.759
-406.374
-425.797
-440.553
-450.15
-454.394
-452.98
-448.109
-441.23
-438.89
-437.894
-434.737
-435.507
-450.875
-466.321
-485.454
-503.649
-517.678
-526.75
-529.672
-528.401
-526.21
-524.126
-12.6838
13.9877
8.85101
8.13884
5.46738
2.29309
-3.03464
-10.4206
-18.1124
-26.7095
-36.2804
-46.4052
-56.9393
-68.3429
-81.5045
-95.6559
-111.351
-128.447
-147.881
-169.076
-192.742
-218.453
-246.359
-276.217
-307.999
-340.642
-372.487
-403.31
-431.662
-454.863
-472.381
-484.04
-488.34
-483.206
-470.39
-453.703
-436.921
-427.067
-421.737
-416.899
-430.802
-452.186
-478.928
-505.184
-527.817
-542.837
-548.493
-547.208
-544.035
-541.263
-5.40651
13.6167
12.3353
10.1695
6.54822
3.37394
-0.390344
-6.59156
-14.2419
-22.6354
-31.8753
-42.3004
-54.1649
-65.8997
-78.961
-93.7356
-110.16
-128.127
-147.658
-169.947
-194.502
-221.872
-252.121
-285.017
-320.279
-357.728
-395.173
-431.357
-465.106
-494.029
-514.619
-527.119
-530.669
-526.122
-510.802
-489.187
-464.142
-444.997
-428.153
-426.359
-432.777
-454.222
-484.029
-515.629
-544.752
-564.901
-572.386
-570.682
-566.299
-563.059
3.54975
11.1174
11.4482
8.40817
5.62467
2.1086
-2.60974
-8.13773
-15.6062
-24.2743
-34.6569
-45.5897
-57.6812
-71.2869
-84.7687
-100.054
-116.538
-135.602
-156.345
-180.203
-207.062
-237.184
-270.77
-307.946
-348.454
-391.203
-434.365
-476.579
-516.2
-547.441
-569.375
-581.766
-583.112
-569.486
-542.102
-509.088
-475.24
-445.723
-424.971
-426.233
-440.718
-465.821
-498.059
-534.949
-570.414
-594.261
-601.304
-596.751
-590.233
-586.645
11.7264
11.48
9.67587
6.57754
1.32884
-1.72781
-5.98885
-13.436
-22.9267
-32.7434
-42.7346
-55.3898
-68.3291
-82.5275
-97.6837
-113.82
-131.859
-151.414
-174.252
-200.804
-230.976
-264.543
-302.562
-345.246
-392.049
-441.355
-491.744
-539.739
-581.442
-617.083
-640.336
-647.957
-638.241
-607.989
-563.488
-526.393
-475.754
-439.03
-429.849
-438.177
-458.415
-484.344
-518.263
-557.627
-596.142
-620.782
-625.993
-617.381
-609.629
-606.521
14.6678
12.3652
7.12349
4.99455
0.687386
-4.91225
-10.0761
-19.8335
-31.1916
-43.518
-55.9173
-69.1329
-84.1988
-99.0674
-114.981
-132.366
-152.469
-174.047
-198.811
-228.392
-262.818
-301.822
-345.981
-395.787
-450.514
-509.207
-566.752
-621.119
-669.813
-706.35
-724.451
-721.108
-694.776
-649.733
-588.914
-524.441
-483.314
-457.022
-454.938
-465.461
-483.247
-509.453
-542.421
-579.42
-615.322
-636.893
-638.964
-628.391
-620.714
-618.602
12.4863
9.39871
4.57554
2.81239
-1.67091
-9.97258
-16.1923
-25.1126
-38.9758
-53.1517
-67.977
-84.0904
-101.14
-117.345
-134.596
-153.81
-175.173
-199.883
-227.906
-261.704
-301.369
-346.646
-398.516
-458.144
-524.519
-593.475
-663.102
-728.639
-780.584
-812.861
-823.37
-799.017
-758.374
-682.865
-603.892
-544.917
-513.977
-497.739
-493.113
-500.824
-517.663
-539.942
-566.69
-596.588
-624.268
-638.91
-637.256
-626.923
-621.94
-621.908
7.20923
2.95899
-3.1227
-10.8938
-12.2782
-15.881
-26.6135
-39.3757
-52.3512
-70.5937
-86.5691
-101.787
-118.346
-135.177
-153.616
-174.656
-197.63
-225.011
-257.915
-297.092
-343.566
-397.397
-460.783
-532.997
-614.33
-701.771
-786.518
-855.96
-909.301
-941.904
-935.885
-885.402
-797.722
-719.912
-653.829
-607.339
-573.113
-552.962
-546.196
-548.423
-557.413
-572.197
-590.397
-609.661
-625.614
-631.025
-625.595
-618.716
-617.016
-619.289
-7.41639
-12.9593
-20.953
-32.7752
-35.5898
-33.1821
-42.6071
-59.9565
-76.7826
-97.9885
-114.105
-129.731
-143.992
-158.481
-174.443
-194.537
-219.302
-248.657
-285.692
-332.037
-388.205
-453.599
-530.363
-622.185
-728.773
-836.948
-928.721
-1006.55
-1063.57
-1076.49
-1031.53
-952.175
-875.032
-807.492
-745.303
-693.247
-656.198
-629.096
-610.394
-601.449
-600.938
-605.41
-612.908
-620.627
-624.933
-623.236
-616.323
-612.191
-612.877
-616.046
-35.4574
-46.9573
-58.9161
-57.7992
-56.2797
-65.0848
-84.3475
-103.164
-123.366
-144.606
-151.834
-162.898
-173.292
-185.297
-199.162
-216.285
-240.178
-272.372
-314.314
-367.717
-433.327
-514.507
-613.253
-735.026
-867.739
-990.557
-1100.15
-1187.64
-1226.97
-1189.33
-1130.84
-1070.07
-999.149
-927.712
-864.738
-804.959
-754.183
-712.7
-681.72
-659.399
-644.983
-637.129
-633.599