/*--------------------------------*- C++ -*----------------------------------*\
| =========                 |                                                 |
| \\      /  F ield         | OpenFOAM: The Open Source CFD Toolbox           |
|  \\    /   O peration     | Version:  v1912                                 |
|   \\  /    A nd           | Website:  www.openfoam.com                      |
|    \\/     M anipulation  |                                                 |
\*---------------------------------------------------------------------------*/
FoamFile
{
    version     2.0;
    format      ascii;
    class       surfaceScalarField;
    location    "0.35";
    object      phi;
}
// * * * * * * * * * * * * * * * * * * * * * * * * * * * * * * * * * * * * * //

dimensions      [0 3 -1 0 0 0 0];
oriented        oriented;


internalField   nonuniform List<scalar> 
13060
(
0.00611644
0.988079
-0.994195
0.00871879
0.944267
-0.94687
0.0110132
0.897892
-0.900186
0.013244
0.853449
-0.855679
0.01539
0.8111
-0.813246
0.0173236
0.770692
-0.772626
0.0191566
0.732179
-0.734012
0.02089
0.695485
-0.697218
0.0224903
0.660505
-0.662105
0.02395
0.627345
-0.628805
0.0253026
0.595767
-0.59712
0.026409
0.565868
-0.566974
0.0271491
0.537662
-0.538402
0.0275703
0.510973
-0.511394
0.0277727
0.485645
-0.485848
0.0278911
0.461584
-0.461703
0.0279722
0.43875
-0.438831
0.0279615
0.417166
-0.417156
0.0278138
0.396644
-0.396497
0.0275918
0.377156
-0.376934
0.0272072
0.35867
-0.358285
0.0265891
0.341342
-0.340724
0.0256144
0.32482
-0.323845
0.0247167
0.308802
-0.307904
0.024023
0.293732
-0.293039
0.0233687
0.279531
-0.278876
0.0226573
0.266125
-0.265414
0.0218083
0.253395
-0.252546
0.0209307
0.241252
-0.240374
0.0200651
0.229822
-0.228956
0.0191295
0.219079
-0.218144
0.0181834
0.209011
-0.208065
0.0172182
0.199475
-0.19851
0.0162327
0.190358
-0.189373
0.0151665
0.181822
-0.180756
0.0139646
0.173856
-0.172655
0.0126783
0.166307
-0.165021
0.0113776
0.159201
-0.1579
0.0100924
0.15256
-0.151275
0.00879324
0.146313
-0.145014
0.00744995
0.140421
-0.139078
0.0061112
0.134842
-0.133504
0.00481831
0.129549
-0.128256
0.00359713
0.124613
-0.123392
0.00239877
0.11985
-0.118652
0.00127368
0.115471
-0.114346
0.000176332
0.110912
-0.109815
-0.00109306
0.10752
-0.10625
-0.00147169
0.0994475
-0.0990689
0.0711509
-0.0726226
0.00632123
0.981758
0.00832677
0.942262
0.0102932
0.895925
0.0121927
0.851549
0.0139592
0.809333
0.0157089
0.768943
0.0175026
0.730385
0.0191792
0.693808
0.0206762
0.659008
0.0218424
0.626179
0.0225672
0.595043
0.0229512
0.565484
0.0231826
0.53743
0.0233267
0.510829
0.0233465
0.485626
0.0232097
0.461721
0.0228874
0.439073
0.0224944
0.417559
0.022031
0.397108
0.0215146
0.377673
0.0210879
0.359097
0.0208564
0.341574
0.0207199
0.324956
0.0203179
0.309204
0.0196648
0.294386
0.0189272
0.280268
0.018174
0.266879
0.0173983
0.254171
0.0165526
0.242098
0.0156106
0.230764
0.0146269
0.220063
0.0136339
0.210004
0.0125752
0.200534
0.0114289
0.191505
0.010262
0.182989
0.00913637
0.174982
0.00805363
0.16739
0.00696578
0.160289
0.005844
0.153682
0.00472139
0.147436
0.00362133
0.141522
0.00262113
0.135843
0.00162035
0.130549
0.000649492
0.125584
-0.000282381
0.120782
-0.00115319
0.116342
-0.00199096
0.11175
-0.00239487
0.107923
-0.00209535
0.099148
0.0690555
0.00652935
0.975228
0.00865757
0.940134
0.0102752
0.894308
0.0118044
0.85002
0.0132471
0.807891
0.0145217
0.767668
0.0156719
0.729235
0.0166934
0.692787
0.0175542
0.658147
0.0183852
0.625348
0.019049
0.594379
0.0194543
0.565079
0.019525
0.53736
0.019365
0.510989
0.0191583
0.485832
0.019003
0.461876
0.0188172
0.439258
0.0185635
0.417813
0.0182502
0.397421
0.0177835
0.37814
0.0171044
0.359776
0.0161929
0.342485
0.0151446
0.326004
0.0142785
0.31007
0.0136332
0.295031
0.0129503
0.280951
0.0121934
0.267635
0.0113346
0.25503
0.0104967
0.242935
0.00970121
0.231559
0.008832
0.220932
0.00794259
0.210894
0.00709906
0.201378
0.00628127
0.192323
0.00541737
0.183853
0.00447698
0.175922
0.00350522
0.168362
0.00255014
0.161244
0.00166466
0.154567
0.000819551
0.148281
1.1771e-05
0.142329
-0.000864671
0.136719
-0.00160177
0.131286
-0.00220776
0.12619
-0.00274323
0.121318
-0.0031938
0.116792
-0.00361349
0.11217
-0.00343183
0.107742
-0.00255893
0.0982751
0.0664966
0.00574772
0.969481
0.00727952
0.938602
0.00856867
0.893018
0.00982926
0.84876
0.0110538
0.806666
0.0123759
0.766346
0.0136812
0.72793
0.0146811
0.691787
0.0152801
0.657548
0.0154266
0.625201
0.0153448
0.594461
0.0152785
0.565145
0.015229
0.537409
0.015056
0.511162
0.0146367
0.486252
0.0140016
0.462511
0.0133764
0.439884
0.0127737
0.418416
0.0121464
0.398048
0.0115709
0.378715
0.0110931
0.360254
0.0108944
0.342684
0.0106687
0.32623
0.0100984
0.31064
0.00935823
0.295771
0.00863305
0.281676
0.00791043
0.268358
0.00718102
0.255759
0.0063259
0.243791
0.00542685
0.232458
0.00454513
0.221814
0.00363602
0.211803
0.0026714
0.202342
0.00168935
0.193305
0.000756652
0.184785
-0.000109852
0.176789
-0.000934707
0.169187
-0.00171751
0.162027
-0.00249065
0.15534
-0.00319946
0.14899
-0.00382027
0.14295
-0.00430573
0.137205
-0.0047541
0.131735
-0.00511958
0.126556
-0.00534055
0.121539
-0.00534667
0.116798
-0.00523036
0.112053
-0.00462548
0.107137
-0.0031877
0.0968373
0.0633089
0.00611291
0.963368
0.0075887
0.937126
0.00846999
0.892137
0.0092991
0.84793
0.0100973
0.805868
0.0108349
0.765608
0.0112132
0.727551
0.0114079
0.691592
0.0116029
0.657353
0.0118004
0.625004
0.0118336
0.594427
0.0115575
0.565421
0.0111285
0.537838
0.0107986
0.511492
0.0105654
0.486485
0.0102438
0.462833
0.00976967
0.440358
0.00928156
0.418904
0.00878084
0.398549
0.00813462
0.379361
0.00724419
0.361144
0.0060587
0.343869
0.00497917
0.32731
0.00420748
0.311412
0.00351152
0.296467
0.00275971
0.282428
0.00197962
0.269138
0.00118313
0.256555
0.000453381
0.24452
-0.000297554
0.233209
-0.00109373
0.22261
-0.00186034
0.21257
-0.0025827
0.203065
-0.00326568
0.193988
-0.00393288
0.185453
-0.00461812
0.177474
-0.0052993
0.169868
-0.00592721
0.162655
-0.00646274
0.155876
-0.00692913
0.149456
-0.00731631
0.143337
-0.00757869
0.137467
-0.00768228
0.131838
-0.00762575
0.126499
-0.00743625
0.121349
-0.00710497
0.116467
-0.00672553
0.111674
-0.00576674
0.106178
-0.0037908
0.0948614
0.0595181
0.00518196
0.958186
0.00573658
0.936571
0.00626123
0.891613
0.00686186
0.84733
0.00758087
0.805149
0.00840303
0.764786
0.00883933
0.727115
0.0089014
0.69153
0.00860402
0.65765
0.00818447
0.625423
0.0078219
0.59479
0.00751255
0.56573
0.00709284
0.538258
0.00645086
0.512134
0.00564856
0.487287
0.00490441
0.463577
0.00425009
0.441012
0.00353451
0.419619
0.00280457
0.399279
0.00223016
0.379936
0.001831
0.361543
0.0016651
0.344035
0.00124909
0.327726
0.000468475
0.312192
-0.000332121
0.297268
-0.00106542
0.283161
-0.00178961
0.269862
-0.00257334
0.257339
-0.0034304
0.245377
-0.00427582
0.234055
-0.00506938
0.223404
-0.00586726
0.213367
-0.00667469
0.203872
-0.00748839
0.194801
-0.00827593
0.18624
-0.00892957
0.178128
-0.00942055
0.170359
-0.00982986
0.163064
-0.0101767
0.156223
-0.0104107
0.14969
-0.0105053
0.143432
-0.01049
0.137452
-0.0103772
0.131726
-0.0101316
0.126253
-0.00972156
0.120939
-0.00910803
0.115854
-0.00836589
0.110932
-0.0070126
0.104825
-0.00443571
0.0922845
0.0550824
0.00522935
0.952956
0.00579836
0.936002
0.00607488
0.891336
0.00626301
0.847142
0.00639842
0.805014
0.00615419
0.765031
0.00568326
0.727586
0.00525592
0.691958
0.00497365
0.657933
0.00464218
0.625755
0.00411031
0.595322
0.00347272
0.566368
0.00295947
0.538771
0.00261035
0.512483
0.00222246
0.487675
0.00166527
0.464134
0.00109165
0.441586
0.000561342
0.42015
-0.000113847
0.399954
-0.0010049
0.380827
-0.00215551
0.362694
-0.00343815
0.345318
-0.00438006
0.328668
-0.00506488
0.312877
-0.00585481
0.298058
-0.00669986
0.284006
-0.00754636
0.270709
-0.00827719
0.25807
-0.00895661
0.246057
-0.00965651
0.234755
-0.0103339
0.224081
-0.0109399
0.213973
-0.0114878
0.20442
-0.0119617
0.195275
-0.0123442
0.186623
-0.012715
0.178499
-0.0130913
0.170735
-0.0133765
0.163349
-0.0135293
0.156376
-0.0135679
0.149729
-0.0134914
0.143355
-0.013267
0.137227
-0.0128708
0.13133
-0.012323
0.125706
-0.0116701
0.120286
-0.01088
0.115063
-0.00988702
0.109939
-0.00817811
0.103116
-0.00499241
0.0890988
0.05009
0.00421101
0.948745
0.00368324
0.93653
0.00341799
0.891601
0.00345969
0.8471
0.00358123
0.804892
0.00339285
0.765219
0.00299802
0.727981
0.00238211
0.692574
0.00165602
0.658659
0.000990951
0.62642
0.000444273
0.595868
-0.000180234
0.566992
-0.00105329
0.539644
-0.0020453
0.513475
-0.00288464
0.488514
-0.00363038
0.46488
-0.00443973
0.442395
-0.00524525
0.420955
-0.00585612
0.400565
-0.00633048
0.381301
-0.00664933
0.363013
-0.00695496
0.345624
-0.00759549
0.329308
-0.00842141
0.313703
-0.00914615
0.298782
-0.00985106
0.284711
-0.0106071
0.271465
-0.0113799
0.258843
-0.0121686
0.246846
-0.0129157
0.235502
-0.0136181
0.224784
-0.0142854
0.214641
-0.0148859
0.20502
-0.0154465
0.195836
-0.01598
0.187156
-0.0163704
0.178889
-0.0165653
0.17093
-0.0166348
0.163418
-0.0166026
0.156343
-0.016442
0.149568
-0.0161409
0.143054
-0.015716
0.136802
-0.0151857
0.130799
-0.014524
0.125044
-0.0137273
0.11949
-0.0128348
0.114171
-0.0114875
0.108592
-0.0093794
0.101008
-0.00557056
0.0852899
0.0445194
0.00443588
0.94431
0.00395341
0.937013
0.00350431
0.89205
0.00276961
0.847835
0.00190199
0.80576
0.000930308
0.766191
-2.77181e-05
0.728939
-0.000849891
0.693396
-0.00159503
0.659404
-0.00233276
0.627157
-0.00313977
0.596675
-0.00380943
0.567662
-0.00427818
0.540113
-0.00477363
0.51397
-0.00543419
0.489175
-0.00612639
0.465572
-0.00680479
0.443073
-0.00758675
0.421737
-0.00851558
0.401494
-0.00951396
0.3823
-0.0106105
0.364109
-0.0117413
0.346754
-0.0125633
0.33013
-0.0132511
0.314391
-0.0140768
0.299608
-0.014901
0.285536
-0.0156285
0.272192
-0.0163209
0.259535
-0.0169615
0.247486
-0.0175644
0.236105
-0.0180838
0.225303
-0.0185306
0.215088
-0.0189388
0.205428
-0.0192362
0.196133
-0.019364
0.187284
-0.0194352
0.17896
-0.0195087
0.171003
-0.0195035
0.163413
-0.0193574
0.156197
-0.0190699
0.149281
-0.0186542
0.142639
-0.018098
0.136246
-0.0173916
0.130093
-0.0165505
0.124203
-0.0155925
0.118532
-0.0145929
0.113171
-0.0129839
0.106983
-0.0105317
0.0985556
-0.00607507
0.0808333
0.0384444
0.00320176
0.941108
0.00157042
0.938644
0.000547765
0.893073
-0.000128967
0.848511
-0.00101135
0.806642
-0.00188643
0.767066
-0.00274158
0.729794
-0.0036226
0.694277
-0.00453222
0.660313
-0.00536814
0.627993
-0.006179
0.597486
-0.0071456
0.568629
-0.00820168
0.541169
-0.00913806
0.514907
-0.00994661
0.489983
-0.0107563
0.466382
-0.0115768
0.443894
-0.0122697
0.42243
-0.0128508
0.402075
-0.0133738
0.382823
-0.013799
0.364534
-0.0142435
0.347199
-0.0149553
0.330842
-0.0157451
0.315181
-0.0164202
0.300283
-0.0171334
0.286249
-0.017862
0.272921
-0.0185749
0.260248
-0.0192655
0.248177
-0.0199165
0.236756
-0.0205371
0.225924
-0.0210808
0.215631
-0.0214909
0.205839
-0.0218384
0.196481
-0.0221831
0.187629
-0.0223837
0.179161
-0.0223553
0.170975
-0.0221659
0.163224
-0.0218735
0.155905
-0.0214753
0.148883
-0.0209411
0.142104
-0.0202746
0.13558
-0.0195029
0.129321
-0.0186234
0.123323
-0.0176115
0.11752
-0.0164264
0.111986
-0.0146402
0.105196
-0.011781
0.0956964
-0.00659277
0.0756451
0.0318516
0.00318576
0.937922
0.00185027
0.939979
0.000449939
0.894473
-0.000928943
0.84989
-0.00241922
0.808132
-0.00379961
0.768446
-0.0050321
0.731026
-0.00606566
0.69531
-0.00701028
0.661258
-0.00793571
0.628919
-0.00873922
0.59829
-0.00935101
0.569241
-0.00995178
0.54177
-0.0106592
0.515614
-0.0114168
0.490741
-0.0121619
0.467127
-0.0129528
0.444685
-0.0139211
0.423398
-0.0149495
0.403103
-0.0159765
0.383849
-0.0170537
0.365612
-0.018052
0.348197
-0.0188236
0.331614
-0.0196001
0.315957
-0.0204268
0.30111
-0.0211856
0.287008
-0.0219114
0.273647
-0.0225603
0.260897
-0.023172
0.248788
-0.0236939
0.237278
-0.0240808
0.226311
-0.0244018
0.215952
-0.0247144
0.206151
-0.0249186
0.196685
-0.0249042
0.187614
-0.0247879
0.179045
-0.0246724
0.17086
-0.0245054
0.163057
-0.0241949
0.155594
-0.0237182
0.148406
-0.0231215
0.141508
-0.0224173
0.134875
-0.0215849
0.128489
-0.0206263
0.122365
-0.0196823
0.116576
-0.0183009
0.110605
-0.0163453
0.103241
-0.013006
0.0923571
-0.0071424
0.0697816
0.0247092
0.00163082
0.936291
-0.000483004
0.942093
-0.00213941
0.89613
-0.00371698
0.851468
-0.00498257
0.809398
-0.00611534
0.769579
-0.00712605
0.732037
-0.0081681
0.696352
-0.00919271
0.662283
-0.0100972
0.629823
-0.0111064
0.599299
-0.0122035
0.570338
-0.0131652
0.542732
-0.0140273
0.516476
-0.0148612
0.491575
-0.0156851
0.467951
-0.0164176
0.445417
-0.0170446
0.424025
-0.0176171
0.403676
-0.0181536
0.384386
-0.0186812
0.366139
-0.0193392
0.348855
-0.0201061
0.332381
-0.0208566
0.316708
-0.0215832
0.301836
-0.0223027
0.287727
-0.0230222
0.274366
-0.023706
0.261581
-0.0243429
0.249425
-0.0249621
0.237897
-0.0255879
0.226936
-0.0261216
0.216486
-0.0264608
0.20649
-0.0266931
0.196917
-0.0269426
0.187864
-0.0270893
0.179191
-0.0270076
0.170778
-0.0267284
0.162778
-0.026342
0.155208
-0.0258811
0.147945
-0.0252908
0.140918
-0.0245549
0.134139
-0.0237106
0.127644
-0.0227867
0.121441
-0.021818
0.115607
-0.0202389
0.109026
-0.0180155
0.101017
-0.0139691
0.0883106
-0.00720394
0.0630164
0.0175053
0.00191364
0.934378
0.000234455
0.943772
-0.00174205
0.898106
-0.00365538
0.853381
-0.00540405
0.811147
-0.00701465
0.771189
-0.00842492
0.733447
-0.00958525
0.697513
-0.0106551
0.663353
-0.0115929
0.630761
-0.0122676
0.599974
-0.0129155
0.570985
-0.0136518
0.543468
-0.0143979
0.517222
-0.0151627
0.49234
-0.0159262
0.468715
-0.0167722
0.446263
-0.0177531
0.425006
-0.0188006
0.404723
-0.0198454
0.385431
-0.0208564
0.36715
-0.0217817
0.34978
-0.0226289
0.333228
-0.0235108
0.31759
-0.0243897
0.302715
-0.0252158
0.288553
-0.0259661
0.275117
-0.0266887
0.262303
-0.0273734
0.25011
-0.0279232
0.238447
-0.028293
0.227306
-0.0285916
0.216785
-0.028917
0.206816
-0.0291774
0.197178
-0.0292063
0.187893
-0.0290724
0.179057
-0.0289207
0.170626
-0.0287612
0.162618
-0.0284741
0.154921
-0.027991
0.147462
-0.0273824
0.140309
-0.0266924
0.13345
-0.0259194
0.126871
-0.025121
0.120642
-0.0240406
0.114527
-0.0223273
0.107313
-0.0195554
0.0982454
-0.0144097
0.083165
-0.00623801
0.0548447
0.0112672
0.000751493
0.933626
-0.00209367
0.946618
-0.00404455
0.900057
-0.00583033
0.855167
-0.00717678
0.812493
-0.00845226
0.772465
-0.00964911
0.734644
-0.0107853
0.698649
-0.0118107
0.664378
-0.0128951
0.631845
-0.0140131
0.601092
-0.0149835
0.571956
-0.0158587
0.544343
-0.0166648
0.518028
-0.0174513
0.493126
-0.0182105
0.469474
-0.0188813
0.446934
-0.0194574
0.425582
-0.0200279
0.405294
-0.0206023
0.386005
-0.0212164
0.367764
-0.0219221
0.350486
-0.0227731
0.334079
-0.0235657
0.318382
-0.0243321
0.303482
-0.0251631
0.289384
-0.0259756
0.275929
-0.0267384
0.263066
-0.0274291
0.250801
-0.0281514
0.239169
-0.0289165
0.228071
-0.0296053
0.217473
-0.0300637
0.207274
-0.0303471
0.197461
-0.0306411
0.188187
-0.0309051
0.179321
-0.030979
0.1707
-0.0308122
0.162451
-0.0305043
0.154613
-0.0301421
0.1471
-0.0296611
0.139828
-0.0290205
0.132809
-0.0282672
0.126118
-0.0275356
0.119911
-0.0262566
0.113248
-0.0242985
0.105354
-0.0207957
0.0947427
-0.0141936
0.0765628
-0.00463685
0.045288
0.00663039
0.00166998
0.931956
-0.000535154
0.948823
-0.00282494
0.902347
-0.00517581
0.857518
-0.00719739
0.814515
-0.00895569
0.774223
-0.0102855
0.735974
-0.0114203
0.699784
-0.0124205
0.665378
-0.0131362
0.632561
-0.0138021
0.601757
-0.0145443
0.572698
-0.0152623
0.545061
-0.0160012
0.518767
-0.0166978
0.493823
-0.0174082
0.470184
-0.0182279
0.447754
-0.0191483
0.426503
-0.0201226
0.406268
-0.0211241
0.387007
-0.0221784
0.368819
-0.0231549
0.351463
-0.0240826
0.335006
-0.0250864
0.319386
-0.0260734
0.304469
-0.027004
0.290315
-0.027926
0.276851
-0.0288636
0.264004
-0.0297631
0.2517
-0.0304968
0.239903
-0.0310355
0.22861
-0.0314777
0.217916
-0.0319523
0.207749
-0.032436
0.197945
-0.032728
0.188479
-0.032782
0.179375
-0.032759
0.170677
-0.032767
0.162459
-0.0326908
0.154537
-0.0324015
0.14681
-0.0319634
0.13939
-0.0314589
0.132304
-0.0309644
0.125624
-0.0302242
0.11917
-0.0286861
0.111709
-0.0262548
0.102923
-0.0217797
0.0902676
-0.0140037
0.0687868
-0.00313514
0.0344194
0.00349525
0.000781977
0.931174
-0.00264539
0.95225
-0.00475803
0.90446
-0.00658872
0.859349
-0.00797687
0.815903
-0.00932566
0.775572
-0.0106275
0.737276
-0.0118077
0.700964
-0.0129574
0.666528
-0.0140386
0.633642
-0.0149463
0.602665
-0.0157844
0.573536
-0.0165397
0.545817
-0.0172572
0.519485
-0.0179896
0.494555
-0.0186572
0.470852
-0.0192534
0.44835
-0.019812
0.427061
-0.020403
0.406859
-0.0209759
0.38758
-0.0215649
0.369407
-0.0223615
0.352259
-0.023192
0.335837
-0.0240716
0.320266
-0.0250382
0.305435
-0.0260441
0.291321
-0.0270352
0.277842
-0.0279687
0.264937
-0.0288954
0.252627
-0.0298872
0.240894
-0.0309395
0.229662
-0.0319557
0.218932
-0.0327672
0.20856
-0.0333336
0.198511
-0.0338357
0.188981
-0.0343724
0.179912
-0.0347999
0.171105
-0.0349503
0.16261
-0.0349009
0.154487
-0.0347936
0.146703
-0.0345742
0.13917
-0.0342186
0.131949
-0.0339175
0.125323
-0.0328732
0.118126
-0.0312002
0.110037
-0.0282202
0.0999431
-0.0225757
0.0846231
-0.0132591
0.0594701
-0.00182645
0.0229868
0.0016688
0.00150855
0.929666
-0.0012367
0.954995
-0.00389961
0.907122
-0.00624105
0.86169
-0.00818683
0.817849
-0.00984234
0.777228
-0.0110819
0.738515
-0.012015
0.701897
-0.0127085
0.667221
-0.0134208
0.634355
-0.0140891
0.603333
-0.0147039
0.574151
-0.015355
0.546468
-0.0159512
0.520081
-0.0165303
0.495134
-0.0171605
0.471482
-0.0178767
0.449066
-0.0186799
0.427864
-0.0195559
0.407735
-0.0205989
0.388623
-0.0216445
0.370453
-0.0226268
0.353241
-0.0237171
0.336927
-0.0248075
0.321356
-0.0259176
0.306546
-0.0270637
0.292467
-0.0282896
0.279068
-0.0295703
0.266218
-0.0307955
0.253852
-0.031876
0.241975
-0.0328092
0.230596
-0.033606
0.219729
-0.0343727
0.209327
-0.0352093
0.199347
-0.0359633
0.189735
-0.0364377
0.180387
-0.0367359
0.171403
-0.0370637
0.162937
-0.0373455
0.154769
-0.0374222
0.14678
-0.037379
0.139127
-0.0374083
0.131978
-0.0370598
0.124974
-0.0360504
0.117117
-0.034331
0.108317
-0.0306398
0.0962519
-0.0231131
0.0770964
-0.0109313
0.0472883
-0.00115067
0.0132063
0.000518128
0.000264587
0.929401
-0.00293879
0.958199
-0.00531884
0.909503
-0.00736879
0.86374
-0.00868614
0.819166
-0.00993743
0.778479
-0.0111265
0.739705
-0.0123376
0.703108
-0.0133855
0.668269
-0.0141944
0.635164
-0.0149474
0.604086
-0.0155989
0.574803
-0.0161976
0.547066
-0.016811
0.520694
-0.0173937
0.495717
-0.0179362
0.472024
-0.0184153
0.449545
-0.0188902
0.428339
-0.019346
0.408191
-0.0197681
0.389045
-0.0203524
0.371037
-0.0211387
0.354028
-0.0220383
0.337827
-0.0230926
0.32241
-0.0242617
0.307715
-0.0254853
0.29369
-0.0267151
0.280298
-0.0279632
0.267466
-0.0292885
0.255177
-0.030698
0.243384
-0.0321504
0.232048
-0.0336304
0.221209
-0.0350208
0.210718
-0.0361366
0.200463
-0.0370347
0.190633
-0.0379554
0.181307
-0.0388696
0.172317
-0.0395246
0.163592
-0.0399407
0.155185
-0.0403007
0.14714
-0.0406188
0.139445
-0.0408676
0.132227
-0.0403753
0.124482
-0.0393667
0.116108
-0.0369663
0.105917
-0.0317132
0.0909989
-0.0219627
0.0673459
-0.00727565
0.0326012
-0.000891488
0.0068221
-0.000373361
0.000577348
0.928824
-0.00217138
0.960947
-0.00485689
0.912188
-0.00741935
0.866302
-0.00945408
0.821201
-0.0109378
0.779963
-0.0118376
0.740604
-0.0124728
0.703743
-0.0131212
0.668918
-0.0136864
0.635729
-0.0141613
0.604561
-0.0146378
0.575279
-0.015069
0.547498
-0.0154627
0.521088
-0.015866
0.49612
-0.0163041
0.472463
-0.0168324
0.450073
-0.0174533
0.42896
-0.0182372
0.408975
-0.0192248
0.390032
-0.0201563
0.371969
-0.0211074
0.354979
-0.022149
0.338869
-0.0232796
0.323541
-0.0245469
0.308982
-0.0259902
0.295134
-0.0275838
0.281891
-0.0292653
0.269147
-0.0309161
0.256828
-0.0325096
0.244978
-0.0340351
0.233573
-0.0354001
0.222574
-0.0366182
0.211936
-0.0378968
0.201742
-0.0392482
0.191984
-0.0403789
0.182438
-0.0412316
0.17317
-0.0420416
0.164402
-0.0428225
0.155966
-0.0434422
0.147759
-0.044049
0.140052
-0.0442433
0.132421
-0.0438619
0.1241
-0.0426726
0.114919
-0.0391246
0.102369
-0.0310714
0.0829456
-0.0174359
0.0537104
-0.00381914
0.0189844
-0.000286653
0.00328962
-0.000660014
-0.000746464
0.92957
-0.00476026
0.964961
-0.00706625
0.914494
-0.00880046
0.868037
-0.0101278
0.822528
-0.0114222
0.781257
-0.0125047
0.741687
-0.0134729
0.704711
-0.0141106
0.669555
-0.014781
0.636399
-0.0153249
0.605105
-0.0157817
0.575736
-0.016232
0.547948
-0.0166482
0.521504
-0.0170251
0.496497
-0.0173372
0.472775
-0.0176087
0.450345
-0.0178517
0.429203
-0.0180183
0.409142
-0.0182031
0.390217
-0.0186466
0.372412
-0.0193223
0.355655
-0.020227
0.339773
-0.0213301
0.324644
-0.0225848
0.310236
-0.023958
0.296507
-0.0254751
0.283409
-0.0271378
0.27081
-0.0289731
0.258663
-0.0309202
0.246925
-0.0329051
0.235558
-0.0349568
0.224625
-0.0370454
0.214024
-0.0389333
0.20363
-0.040453
0.193504
-0.0418497
0.183835
-0.0433065
0.174627
-0.0446095
0.165705
-0.0456785
0.157035
-0.0467045
0.148785
-0.0475902
0.140938
-0.0478075
0.132639
-0.0472925
0.123586
-0.0449264
0.112553
-0.0392189
0.0966611
-0.0284405
0.0721672
-0.0115172
0.0367872
-0.00232753
0.00979477
-0.000143536
0.00110562
-0.00080355
-0.00102982
0.9306
-0.00492388
0.968855
-0.00820039
0.917771
-0.0107135
0.87055
-0.0120511
0.823866
-0.0130409
0.782247
-0.0137537
0.7424
-0.014273
0.705231
-0.0145753
0.669858
-0.0148379
0.636662
-0.0151246
0.605392
-0.0153524
0.575964
-0.0155618
0.548157
-0.0157707
0.521713
-0.0159708
0.496698
-0.0162122
0.473016
-0.0164861
0.450619
-0.0168883
0.429606
-0.0174761
0.409729
-0.0181692
0.39091
-0.0187999
0.373043
-0.0194474
0.356302
-0.0202595
0.340585
-0.0213223
0.325707
-0.0226636
0.311578
-0.0242885
0.298132
-0.0261757
0.285296
-0.0282261
0.272861
-0.0303532
0.260791
-0.0325393
0.249111
-0.0347591
0.237778
-0.0368798
0.226746
-0.0387959
0.21594
-0.0406398
0.205474
-0.0426337
0.195498
-0.0445834
0.185784
-0.0462045
0.176248
-0.0476062
0.167107
-0.0489242
0.158353
-0.0502186
0.15008
-0.0510435
0.141763
-0.0511602
0.132755
-0.0500569
0.122482
-0.0463767
0.108872
-0.0374668
0.0877512
-0.0215874
0.0562878
-0.00583762
0.0210374
-0.000971935
0.00492909
8.84542e-05
4.52258e-05
-0.000715097
-0.00473872
0.935339
-0.00907581
0.973192
-0.0114319
0.920127
-0.0129671
0.872085
-0.0145689
0.825467
-0.015422
0.7831
-0.0158373
0.742815
-0.0160714
0.705465
-0.0164756
0.670262
-0.0167865
0.636973
-0.0171
0.605705
-0.0173701
0.576234
-0.0176149
0.548402
-0.0178453
0.521944
-0.0180085
0.496861
-0.0180973
0.473105
-0.0180663
0.450588
-0.0178867
0.429426
-0.0176543
0.409497
-0.0175027
0.390759
-0.017645
0.373185
-0.0180735
0.35673
-0.0187082
0.34122
-0.0195298
0.326529
-0.0206131
0.312661
-0.0219976
0.299516
-0.0236754
0.286974
-0.0256772
0.274862
-0.0279981
0.263112
-0.0305504
0.251663
-0.0332203
0.240448
-0.0359614
0.229487
-0.0387813
0.21876
-0.041578
0.20827
-0.04399
0.19791
-0.046022
0.187816
-0.0480216
0.178247
-0.0500088
0.169094
-0.0518847
0.160229
-0.0534988
0.151694
-0.0542557
0.14252
-0.0542074
0.132707
-0.0518959
0.120171
-0.0450266
0.102003
-0.0319959
0.0747204
-0.012803
0.0370949
-0.00276283
0.0109973
-0.000129041
0.0022953
0.000200532
-0.000284349
-0.000514566
-0.00416074
0.939499
-0.00995507
0.978987
-0.0145531
0.924725
-0.0173854
0.874917
-0.0182382
0.82632
-0.018509
0.783371
-0.0183538
0.74266
-0.0180127
0.705124
-0.0177308
0.66998
-0.0175157
0.636758
-0.0174569
0.605647
-0.0174983
0.576275
-0.0175809
0.548485
-0.0176903
0.522053
-0.0177982
0.496969
-0.0179086
0.473215
-0.0180889
0.450768
-0.0183202
0.429657
-0.0185078
0.409685
-0.0186357
0.390886
-0.0186614
0.373211
-0.018753
0.356822
-0.0191215
0.341589
-0.01983
0.327237
-0.0208933
0.313724
-0.0223755
0.300998
-0.0243187
0.288917
-0.0266031
0.277147
-0.0291413
0.26565
-0.0318867
0.254409
-0.0347982
0.24336
-0.0377761
0.232465
-0.0406521
0.221636
-0.043277
0.210895
-0.0459183
0.200551
-0.0486985
0.190597
-0.0512336
0.180782
-0.0533713
0.171232
-0.0554109
0.162269
-0.0567897
0.153073
-0.0574
0.14313
-0.0563402
0.131647
-0.0519788
0.115809
-0.0416819
0.0917062
-0.0222743
0.0553128
-0.00575873
0.0205794
-0.00072054
0.00595907
0.00042285
0.00115191
0.000292337
-0.000153835
-0.000222229
-0.0109312
0.950431
-0.0161347
0.98419
-0.0187401
0.92733
-0.0208692
0.877046
-0.0221012
0.827552
-0.0225306
0.7838
-0.0222692
0.742398
-0.0217596
0.704614
-0.0212629
0.669483
-0.0209688
0.636464
-0.0208263
0.605504
-0.0208323
0.576281
-0.020903
0.548555
-0.021022
0.522172
-0.0210879
0.497035
-0.0210085
0.473136
-0.0206787
0.450438
-0.0201805
0.429159
-0.0196851
0.409189
-0.0192593
0.390461
-0.0189348
0.372887
-0.018723
0.35661
-0.0187134
0.341579
-0.0189667
0.32749
-0.0196034
0.314361
-0.0206163
0.302011
-0.02204
0.290341
-0.0240577
0.279164
-0.0266627
0.268255
-0.0297548
0.257501
-0.0331753
0.24678
-0.0367604
0.23605
-0.0404087
0.225284
-0.0441869
0.214674
-0.0477626
0.204127
-0.0507705
0.193604
-0.0534433
0.183455
-0.0562091
0.173998
-0.058669
0.164729
-0.0602832
0.154687
-0.0605501
0.143397
-0.0581784
0.129276
-0.0499731
0.107604
-0.0327319
0.074465
-0.0116235
0.0342045
-0.00254375
0.0114997
-0.000102886
0.00351821
0.000300287
0.000748735
0.000179338
-3.28883e-05
-4.28915e-05
-0.0107394
0.96117
-0.0195267
0.992977
-0.0266892
0.934493
-0.028903
0.87926
-0.0289029
0.827552
-0.0280437
0.782941
-0.0266556
0.74101
-0.0250996
0.703058
-0.023651
0.668035
-0.0225728
0.635385
-0.0218407
0.604772
-0.0214992
0.57594
-0.0214487
0.548505
-0.0215991
0.522323
-0.0218215
0.497257
-0.0221004
0.473415
-0.0223881
0.450726
-0.0224487
0.42922
-0.0221709
0.408911
-0.0216386
0.389928
-0.0210213
0.372269
-0.0204699
0.356059
-0.020068
0.341177
-0.0199255
0.327348
-0.0202135
0.314649
-0.0211427
0.30294
-0.0227591
0.291957
-0.0249362
0.281341
-0.0276161
0.270935
-0.0307651
0.26065
-0.0343216
0.250337
-0.0381723
0.239901
-0.0421807
0.229293
-0.0459467
0.21844
-0.0494729
0.207653
-0.0530863
0.197218
-0.056761
0.18713
-0.0600475
0.177284
-0.0621816
0.166863
-0.0631772
0.155682
-0.0621442
0.142364
-0.0561553
0.123287
-0.0430772
0.0945259
-0.0204224
0.0518102
-0.00571316
0.0194952
-0.00135971
0.00714621
-0.000299202
0.0024577
-9.99601e-05
0.000549494
-3.68391e-05
-9.601e-05
-7.97312e-05
-0.0207267
0.981897
-0.0265341
0.998785
-0.0307787
0.938737
-0.0334609
0.881942
-0.0344505
0.828542
-0.0339683
0.782459
-0.0324888
0.739531
-0.0305783
0.701148
-0.0285945
0.666051
-0.0270361
0.633827
-0.0259447
0.603681
-0.0253585
0.575353
-0.025169
0.548315
-0.0252396
0.522393
-0.0253954
0.497413
-0.0253583
0.473378
-0.0250725
0.45044
-0.024687
0.428834
-0.0241664
0.408391
-0.0234654
0.389227
-0.0225497
0.371353
-0.0215309
0.35504
-0.0206313
0.340277
-0.0200314
0.326748
-0.019719
0.314336
-0.0197498
0.302971
-0.0203061
0.292513
-0.0216898
0.282725
-0.0241111
0.273356
-0.0274425
0.263981
-0.0314741
0.254368
-0.0359534
0.24438
-0.040576
0.233916
-0.0453943
0.223258
-0.0502968
0.212556
-0.0548338
0.201755
-0.0588594
0.191156
-0.0619973
0.180422
-0.0641179
0.168983
-0.0646364
0.156201
-0.0615255
0.139253
-0.0516243
0.113385
-0.0303391
0.0732407
-0.00973565
0.0312067
-0.00237561
0.0121352
-0.000212888
0.00498349
0.000191947
0.00205287
6.9281e-05
0.00067216
-5.95555e-05
3.28262e-05
-0.000139287
-0.0175693
0.999466
-0.0320837
1.0133
-0.0440701
0.950724
-0.046279
0.884151
-0.0455983
0.827861
-0.0431565
0.780017
-0.0397055
0.73608
-0.0360528
0.697495
-0.0324965
0.662495
-0.0296502
0.630981
-0.0276093
0.60164
-0.026413
0.574157
-0.0259883
0.54789
-0.0260875
0.522492
-0.0266293
0.497954
-0.0274028
0.474151
-0.0280403
0.451078
-0.0281956
0.428989
-0.0278927
0.408088
-0.0271341
0.388469
-0.0260543
0.370274
-0.0246592
0.353645
-0.0231044
0.338723
-0.0216853
0.325329
-0.0207885
0.31344
-0.0206513
0.302834
-0.0213455
0.293207
-0.0228061
0.284186
-0.0250032
0.275553
-0.0281132
0.267091
-0.0320561
0.258311
-0.0366998
0.249024
-0.0418598
0.239076
-0.0471219
0.22852
-0.0519877
0.217421
-0.0566976
0.206465
-0.0614753
0.195933
-0.0654774
0.184424
-0.0674267
0.170933
-0.0660487
0.154823
-0.0582209
0.131425
-0.0407002
0.0958647
-0.0158077
0.0483482
-0.00334611
0.0187451
0.000959687
0.00782939
0.00221995
0.00372322
0.00211073
0.0021621
0.00131907
0.00146382
0.000423578
0.000928318
0.000284291
-0.0299107
1.02938
-0.0396092
1.023
-0.0466784
0.957793
-0.0514362
0.888909
-0.053168
0.829593
-0.0515903
0.778439
-0.0480813
0.732571
-0.0439552
0.693369
-0.0395828
0.658122
-0.0358603
0.627258
-0.0329371
0.598716
-0.0309242
0.572144
-0.0300018
0.546968
-0.0297447
0.522235
-0.0298986
0.498108
-0.0301822
0.474435
-0.030557
0.451452
-0.0309272
0.42936
-0.0308353
0.407996
-0.0301672
0.387801
-0.0290321
0.369139
-0.0275805
0.352193
-0.0258507
0.336993
-0.0239043
0.323383
-0.0220071
0.311542
-0.0203977
0.301225
-0.019394
0.292204
-0.0194258
0.284218
-0.0208695
0.276997
-0.023779
0.270001
-0.0280238
0.262556
-0.0331807
0.25418
-0.0389988
0.244894
-0.0452424
0.234764
-0.0516725
0.223851
-0.0582249
0.213017
-0.0635343
0.201243
-0.0670222
0.187912
-0.0678856
0.171796
-0.0627172
0.149654
-0.0509231
0.119631
-0.0254588
0.0704004
-0.00559288
0.0284823
0.00163191
0.0115203
0.00443007
0.00503123
0.00510726
0.00304603
0.0045613
0.00270806
0.00305381
0.00297131
0.00116654
0.00281559
0.00145083
-0.0241627
1.05354
-0.0464988
1.04533
-0.0652031
0.976497
-0.0688255
0.892531
-0.0679342
0.828702
-0.0642976
0.774803
-0.0579724
0.726246
-0.0518484
0.687245
-0.0456428
0.651917
-0.0398605
0.621476
-0.0351123
0.593968
-0.0320733
0.569105
-0.0305995
0.545494
-0.03032
0.521956
-0.031151
0.498939
-0.0325391
0.475823
-0.0336561
0.452569
-0.0347858
0.430489
-0.0352128
0.408423
-0.0348285
0.387416
-0.0335514
0.367862
-0.0315437
0.350186
-0.0290909
0.33454
-0.026465
0.320757
-0.0240517
0.309129
-0.022244
0.299417
-0.0212093
0.291169
-0.021059
0.284067
-0.0218962
0.277834
-0.0240885
0.272193
-0.0278567
0.266324
-0.0330547
0.259378
-0.0395724
0.251411
-0.046757
0.241948
-0.0536082
0.230703
-0.0603843
0.219793
-0.0652803
0.206139
-0.0668983
0.18953
-0.0651183
0.170016
-0.0590165
0.143553
-0.0369697
0.0975841
-0.0106891
0.0441198
0.000115501
0.0176777
0.00417867
0.00745715
0.00581105