/*--------------------------------*- C++ -*----------------------------------*\
| =========                 |                                                 |
| \\      /  F ield         | OpenFOAM: The Open Source CFD Toolbox           |
|  \\    /   O peration     | Version:  v1912                                 |
|   \\  /    A nd           | Website:  www.openfoam.com                      |
|    \\/     M anipulation  |                                                 |
\*---------------------------------------------------------------------------*/
FoamFile
{
    version     2.0;
    format      ascii;
    class       volVectorField;
    location    "0.35";
    object      U;
}
// * * * * * * * * * * * * * * * * * * * * * * * * * * * * * * * * * * * * * //

dimensions      [0 1 -1 0 0 0 0];


internalField   nonuniform List<vector> 
6600
(
(39.8377 -0.0482884 0)
(40.0723 -0.0776445 1.80652e-20)
(40.1159 -0.0340238 1.25868e-18)
(40.133 0.00748318 0)
(40.1517 0.0522508 1.56212e-18)
(40.1672 0.0959452 5.29366e-20)
(40.1895 0.14706 -5.8778e-20)
(40.2036 0.202625 -6.42361e-20)
(40.2054 0.258753 1.30085e-18)
(40.2069 0.319946 -1.30368e-19)
(40.2115 0.393797 0)
(40.2215 0.47383 -1.56784e-18)
(40.2258 0.573869 0)
(40.2163 0.701853 -1.6866e-18)
(40.2035 0.856478 -2.25037e-18)
(40.1925 1.03098 -1.17385e-18)
(40.1867 1.21974 0)
(40.1893 1.4223 0)
(40.177 1.64923 1.79341e-18)
(40.1652 1.90122 -1.5896e-18)
(40.1388 2.17921 -2.33849e-19)
(40.1291 2.48768 -8.38868e-19)
(40.1166 2.86671 -1.49802e-18)
(40.0191 3.30279 3.07905e-19)
(39.9671 3.72309 1.13231e-18)
(39.9212 4.16461 0)
(39.8702 4.64327 2.52002e-18)
(39.8033 5.16048 0)
(39.677 5.73519 -1.05546e-18)
(39.5611 6.34863 -5.98208e-19)
(39.4486 6.99643 -4.10277e-19)
(39.3784 7.71474 -6.23586e-19)
(39.3175 8.50969 -3.12327e-19)
(39.2211 9.33134 4.17358e-19)
(39.1137 10.2146 4.49028e-19)
(38.9919 11.2073 2.64106e-19)
(38.8755 12.3006 9.39918e-19)
(38.7725 13.4844 3.38483e-19)
(38.6821 14.7507 -1.61867e-19)
(38.6232 16.1213 7.1932e-21)
(38.5604 17.5925 -1.26364e-19)
(38.4706 19.1655 0)
(38.4009 20.8376 8.45391e-19)
(38.4282 22.6589 -1.71617e-18)
(38.4881 24.5649 0)
(38.5711 26.6481 -2.70334e-18)
(38.589 28.7391 -6.27607e-18)
(39.0027 31.1931 0)
(37.5531 32.6449 0)
(28.175 26.6488 -3.21805e-18)
(39.7255 -0.0577403 1.06548e-18)
(40.1164 -0.0936522 -1.13239e-18)
(40.1478 -0.0269518 0)
(40.1677 0.0177851 -2.1267e-20)
(40.1895 0.0667341 1.49818e-18)
(40.2045 0.11894 5.12349e-20)
(40.2229 0.164134 -6.39894e-22)
(40.2372 0.215264 -6.25709e-20)
(40.2506 0.268709 0)
(40.2668 0.335329 -2.31961e-18)
(40.2767 0.419045 -8.32121e-20)
(40.2868 0.540538 1.40958e-18)
(40.3101 0.681828 1.44313e-18)
(40.3337 0.838681 9.76036e-19)
(40.3463 1.00673 1.61196e-21)
(40.3496 1.1949 1.32686e-19)
(40.3429 1.41456 -1.09186e-18)
(40.3415 1.65787 0)
(40.3406 1.91991 0)
(40.3212 2.20925 1.60499e-18)
(40.299 2.51641 2.02132e-19)
(40.2719 2.83974 -1.03118e-18)
(40.2384 3.14149 -8.62772e-19)
(40.2099 3.46398 -9.17839e-19)
(40.1779 3.87714 -6.94796e-19)
(40.1463 4.32793 -3.04833e-19)
(40.1112 4.82036 -4.24288e-19)
(40.0715 5.34751 -3.42541e-19)
(40.062 5.90888 1.0017e-18)
(40.0441 6.55858 3.56241e-19)
(40.0383 7.25919 -1.09234e-18)
(40.007 7.99046 9.22417e-19)
(39.9387 8.78969 2.39684e-19)
(39.8726 9.65996 -5.63977e-19)
(39.8336 10.6032 4.9971e-19)
(39.8132 11.6338 -2.70125e-19)
(39.7758 12.7222 -6.23364e-19)
(39.7738 13.874 -2.33641e-19)
(39.8152 15.1329 5.70375e-19)
(39.8386 16.4865 6.8782e-19)
(39.8973 17.9352 0)
(40.0168 19.484 0)
(40.1652 21.1245 1.43776e-18)
(40.3096 22.8771 -1.71828e-18)
(40.481 24.7134 -5.01264e-18)
(40.786 26.7322 2.79162e-18)
(41.0415 28.7311 8.69512e-18)
(41.6577 31.0107 0)
(40.3318 32.024 -8.12185e-18)
(29.5579 25.7554 3.6414e-18)
(39.6095 -0.0412263 -4.28113e-20)
(40.1981 -0.136799 1.15387e-18)
(40.2146 -0.0431936 1.18955e-18)
(40.2358 -0.00248823 -3.56099e-22)
(40.2608 0.0493108 -1.33756e-19)
(40.2756 0.108164 4.99648e-20)
(40.2931 0.172545 0)
(40.3003 0.248197 0)
(40.299 0.330167 0)
(40.3142 0.421082 1.24753e-18)
(40.3439 0.517639 -7.88357e-20)
(40.3618 0.627086 -1.41899e-18)
(40.3719 0.766445 -7.47289e-19)
(40.3845 0.934635 1.51907e-18)
(40.3986 1.1279 8.37099e-19)
(40.4165 1.32559 -1.18115e-19)
(40.446 1.53724 2.20107e-18)
(40.469 1.7678 -1.03474e-18)
(40.4929 2.0164 -1.10166e-18)
(40.525 2.29333 0)
(40.5346 2.60333 -6.12704e-19)
(40.576 2.96258 8.1565e-19)
(40.5883 3.38867 8.73126e-19)
(40.5582 3.82754 9.29422e-19)
(40.5529 4.25691 7.8333e-19)
(40.5614 4.71736 6.24208e-23)
(40.5702 5.22399 -1.11187e-19)
(40.5699 5.77873 -1.63197e-19)
(40.5121 6.37201 -1.02429e-19)
(40.4866 6.99242 4.49358e-19)
(40.4781 7.67973 7.02974e-20)
(40.5214 8.43082 0)
(40.5834 9.24205 1.39003e-19)
(40.6244 10.0884 -1.41773e-19)
(40.6676 10.9866 -4.09316e-19)
(40.7103 11.9707 -1.28975e-18)
(40.7746 13.0512 3.65266e-20)
(40.8657 14.2144 6.67145e-19)
(40.9998 15.444 5.87549e-19)
(41.1939 16.7683 0)
(41.3909 18.1775 2.5226e-18)
(41.5875 19.662 0)
(41.8646 21.226 0)
(42.2743 22.9157 5.06385e-18)
(42.7357 24.6637 2.90936e-18)
(43.2321 26.5469 -4.86583e-18)
(43.7325 28.4918 -5.05017e-18)
(44.4681 30.5753 0)
(43.0713 31.135 -5.02048e-18)
(30.7516 24.4215 5.35561e-18)
(39.5031 -0.0268579 -1.02996e-18)
(40.263 -0.115955 8.28364e-21)
(40.2676 -0.000986424 -1.22402e-18)
(40.2904 0.0381657 -1.21854e-18)
(40.3058 0.0921952 -1.40136e-18)
(40.3152 0.155363 -7.1234e-19)
(40.3251 0.204586 -5.21104e-20)
(40.3442 0.271095 0)
(40.3716 0.348834 9.4994e-19)
(40.403 0.453185 1.09719e-18)
(40.4326 0.595517 -7.37378e-20)
(40.4684 0.74479 -7.79323e-20)
(40.5099 0.901797 -6.31715e-19)
(40.5477 1.06886 -1.75337e-19)
(40.5842 1.25787 2.57722e-22)
(40.6072 1.48796 -1.04003e-19)
(40.6272 1.74321 -3.01211e-20)
(40.6599 2.00665 1.16024e-18)
(40.684 2.29169 1.43005e-18)
(40.7089 2.59766 0)
(40.7304 2.91918 1.59765e-19)
(40.7311 3.24705 0)
(40.7801 3.55522 0)
(40.8092 3.92944 -1.22961e-19)
(40.8184 4.36406 2.95919e-19)
(40.8448 4.83492 3.72493e-19)
(40.8835 5.33895 -5.26596e-20)
(40.9475 5.88529 2.59091e-19)
(41.0265 6.4755 0)
(41.0939 7.13399 0)
(41.188 7.84211 -3.04946e-19)
(41.2721 8.59239 0)
(41.3419 9.40949 9.40294e-21)
(41.411 10.2939 -6.97896e-19)
(41.5305 11.24 1.13979e-18)
(41.6892 12.2626 1.81048e-18)
(41.8392 13.3216 -3.10275e-18)
(42.0472 14.4363 1.17814e-18)
(42.3091 15.6467 4.86069e-19)
(42.5779 16.9254 5.71241e-19)
(42.9229 18.2878 -6.08514e-18)
(43.3531 19.7216 0)
(43.8128 21.2122 0)
(44.2869 22.7868 -2.97597e-18)
(44.8501 24.4212 -4.75921e-18)
(45.5658 26.196 -1.03095e-18)
(46.2666 28.0235 -7.52212e-18)
(47.0187 29.8096 8.31123e-18)
(45.3961 29.9492 1.11364e-17)
(31.5342 22.7844 0)
(39.3921 -0.023454 -3.65736e-21)
(40.3442 -0.157176 9.89113e-19)
(40.3514 -0.0194944 1.06632e-18)
(40.3693 0.0156915 1.26238e-18)
(40.3845 0.0816676 0)
(40.3917 0.151058 4.54752e-20)
(40.4076 0.230445 0)
(40.4285 0.335256 -5.22231e-20)
(40.4491 0.444258 -1.77586e-18)
(40.4799 0.555294 -1.09748e-18)
(40.5182 0.675316 6.79935e-20)
(40.5495 0.8224 7.05629e-20)
(40.5851 0.997655 -7.85294e-20)
(40.6201 1.19227 -6.9997e-19)
(40.664 1.37805 -1.46722e-18)
(40.7181 1.5738 9.37482e-20)
(40.7675 1.80493 -1.50862e-18)
(40.8174 2.06181 9.28583e-20)
(40.8864 2.32988 -4.61739e-19)
(40.9582 2.62297 -1.9552e-19)
(41.0281 2.95653 5.65865e-19)
(41.1077 3.34636 0)
(41.1553 3.80979 0)
(41.2158 4.23923 -3.5788e-20)
(41.2851 4.68377 -1.60934e-19)
(41.362 5.16432 -1.3525e-19)
(41.4425 5.69306 1.26304e-20)
(41.5066 6.25769 0)
(41.5588 6.85873 -1.20111e-19)
(41.639 7.48902 1.33791e-19)
(41.7368 8.18123 3.09943e-19)
(41.8925 8.92618 1.20874e-18)
(42.0905 9.72485 -4.07775e-19)
(42.2886 10.573 6.77743e-19)
(42.4976 11.4642 -7.54182e-19)
(42.7238 12.4155 0)
(42.9858 13.4498 1.20354e-18)
(43.2871 14.5515 4.20066e-18)
(43.6565 15.7096 -2.26578e-18)
(44.1022 16.9432 -2.75441e-18)
(44.5525 18.2321 3.58491e-18)
(45.032 19.5731 0)
(45.6277 20.9615 0)
(46.37 22.4373 -4.5359e-18)
(47.1648 23.9331 9.92533e-18)
(47.9894 25.5222 2.60291e-18)
(48.8554 27.2648 4.46893e-18)
(49.5604 28.8046 -9.88993e-18)
(47.5129 28.5093 6.97347e-19)
(31.9148 20.8726 -1.49595e-17)
(39.2797 -0.0208146 8.84161e-19)
(40.4039 -0.118293 -6.46544e-20)
(40.4038 0.0389149 -1.08679e-18)
(40.4258 0.0690055 5.49862e-19)
(40.431 0.143456 0)
(40.4293 0.203154 7.15532e-19)
(40.4525 0.278446 -2.30095e-20)
(40.5007 0.365237 -7.49137e-19)
(40.5405 0.483882 8.83648e-19)
(40.5887 0.628429 0)
(40.6359 0.781495 5.88169e-20)
(40.6944 0.933161 4.0928e-19)
(40.7572 1.10104 -5.59708e-19)
(40.8208 1.29111 7.26877e-20)
(40.881 1.52122 7.08685e-19)
(40.9374 1.76251 -7.71827e-20)
(40.9946 2.01037 4.99758e-19)
(41.0519 2.27823 -7.72116e-20)
(41.1043 2.57892 6.08224e-20)
(41.176 2.89278 9.03794e-20)
(41.2412 3.2068 7.41898e-20)
(41.3042 3.52154 1.15647e-20)
(41.4185 3.83693 7.95783e-21)
(41.5019 4.25441 -9.84197e-20)
(41.592 4.70566 0)
(41.6996 5.18377 1.25388e-19)
(41.8304 5.68866 -1.16783e-19)
(42.0067 6.24367 -3.90745e-20)
(42.1668 6.84798 -1.14274e-19)
(42.3406 7.50699 -2.64061e-19)
(42.5599 8.20314 9.60427e-19)
(42.7723 8.94334 -8.56195e-19)
(42.9829 9.73843 0)
(43.1967 10.5893 0)
(43.4795 11.5049 0)
(43.8243 12.49 0)
(44.1719 13.4882 3.25773e-18)
(44.5858 14.5209 -6.17791e-18)
(45.0643 15.6296 0)
(45.5706 16.7812 6.02282e-20)
(46.1775 17.9924 -3.93933e-19)
(46.8763 19.248 -6.98806e-18)
(47.5899 20.5303 3.84818e-18)
(48.3265 21.8559 0)
(49.1887 23.204 3.39762e-18)
(50.1968 24.6622 -1.22869e-17)
(51.1662 26.2553 8.70956e-18)
(51.706 27.457 6.30482e-18)
(49.059 26.7577 2.26101e-17)
(31.7571 18.6759 -1.69425e-17)
(39.1518 -0.0124319 -8.82994e-19)
(40.4795 -0.145876 -1.79661e-18)
(40.4853 0.023362 1.52176e-20)
(40.5107 0.0455759 -5.51223e-19)
(40.5201 0.133131 5.34139e-19)
(40.531 0.219811 -1.9087e-20)
(40.5737 0.334954 6.57029e-19)
(40.6121 0.457502 7.52138e-19)
(40.6484 0.579013 7.39923e-19)
(40.6863 0.707832 -2.58564e-20)
(40.7463 0.856402 -3.90742e-19)
(40.8072 1.02577 -7.66682e-20)
(40.8677 1.21167 4.97093e-19)
(40.9308 1.38928 0)
(41.0141 1.5765 0)
(41.1001 1.79214 2.48146e-20)
(41.1779 2.03099 3.70288e-19)
(41.2674 2.28084 0)
(41.3806 2.54943 1.24327e-20)
(41.5023 2.86174 -1.7333e-19)
(41.6382 3.21836 -1.01838e-19)
(41.7582 3.62712 -1.20633e-19)
(41.868 4.07622 0)
(42.0111 4.47749 1.39463e-19)
(42.1558 4.92468 1.03687e-19)
(42.3086 5.42213 -1.15735e-19)
(42.4615 5.95214 0)
(42.61 6.51133 0)
(42.7825 7.09337 1.17422e-19)
(42.9823 7.71874 6.25868e-19)
(43.1991 8.39778 -1.59628e-18)
(43.4771 9.11342 6.93659e-19)
(43.8144 9.8699 1.02852e-18)
(44.1727 10.6772 -2.45963e-18)
(44.5488 11.5138 4.04162e-18)
(44.9537 12.3864 1.26671e-18)
(45.4062 13.3334 -2.24733e-18)
(45.9039 14.333 2.85462e-18)
(46.4809 15.3688 -4.2813e-18)
(47.1396 16.4547 7.48686e-20)
(47.8047 17.5632 -4.85859e-19)
(48.505 18.7007 3.60562e-18)
(49.3393 19.86 5.13622e-18)
(50.3185 21.0657 -5.70586e-18)
(51.3276 22.2558 3.49887e-18)
(52.3421 23.5058 0)
(53.3703 24.9638 5.27201e-18)
(53.7242 25.9017 7.69234e-18)
(50.2538 24.7689 -1.59769e-17)
(30.9994 16.2215 -4.98438e-18)
(39.0415 -0.0172164 7.66877e-19)
(40.5395 -0.0966899 8.61243e-19)
(40.5504 0.0917471 7.22191e-21)
(40.5834 0.115267 -4.6813e-19)
(40.5722 0.205331 -1.06112e-18)
(40.5892 0.283464 5.57836e-19)
(40.6444 0.385941 -1.23072e-18)
(40.7177 0.502079 3.01182e-19)
(40.7704 0.639608 -7.19437e-19)
(40.8334 0.789538 -3.42413e-19)
(40.9017 0.941404 7.61425e-19)
(40.9902 1.09982 -4.47463e-19)
(41.0884 1.28185 -3.03496e-19)
(41.1794 1.49989 3.73493e-21)
(41.2693 1.72748 -9.65151e-20)
(41.3748 1.95905 8.57837e-20)
(41.4758 2.20762 -1.49285e-19)
(41.5601 2.48653 0)
(41.6505 2.77406 0)
(41.759 3.05434 0)
(41.8864 3.35948 3.7447e-20)
(42.023 3.65893 8.81883e-20)
(42.187 3.9923 3.0594e-19)
(42.3378 4.41743 9.7148e-20)
(42.5107 4.85365 0)
(42.7195 5.305 0)
(42.9662 5.81735 -6.41899e-19)
(43.2308 6.35689 3.89575e-19)
(43.4902 6.94166 -1.34438e-19)
(43.7831 7.57181 1.61626e-19)
(44.127 8.23607 1.02536e-19)
(44.4766 8.94656 1.26412e-18)
(44.8318 9.69219 -6.59654e-19)
(45.185 10.4674 2.45622e-18)
(45.611 11.3002 -1.77122e-18)
(46.1193 12.1964 -9.28148e-19)
(46.6362 13.0886 2.4698e-19)
(47.2275 13.9982 1.8543e-18)
(47.8869 14.9547 1.94301e-18)
(48.5794 15.9294 2.81639e-18)
(49.3737 16.9414 -4.75612e-19)
(50.255 17.9688 4.79231e-18)
(51.1346 19.0023 -5.33068e-18)
(52.0317 20.0465 0)
(53.0714 21.0827 0)
(54.2415 22.2098 0)
(55.2594 23.4732 0)
(55.2365 24.039 0)
(50.6855 22.5199 -9.38956e-18)
(29.5381 13.5931 1.53645e-17)
(38.9329 -0.0222461 -7.68441e-19)
(40.6223 -0.12539 0)
(40.6486 0.0626506 0)
(40.6877 0.0814063 4.76786e-19)
(40.6937 0.210044 5.0062e-19)
(40.7391 0.315308 -5.57546e-19)
(40.7933 0.443285 5.91516e-19)
(40.8497 0.570176 -3.02142e-19)
(40.9021 0.706351 2.66292e-19)
(40.9676 0.843966 3.39881e-19)
(41.0479 1.00308 -3.27926e-19)
(41.1313 1.17099 2.16874e-19)
(41.2266 1.3384 4.0932e-19)
(41.3288 1.5034 0)
(41.4406 1.70096 1.18657e-19)
(41.5634 1.91843 -8.77508e-20)
(41.6964 2.15001 7.90577e-21)
(41.8545 2.39657 1.73301e-19)
(42.021 2.68481 -2.97643e-19)
(42.2007 3.00667 0)
(42.3795 3.34034 0)
(42.5672 3.73952 -4.29451e-19)
(42.7635 4.15079 1.85683e-19)
(42.9763 4.52694 7.73315e-19)
(43.1884 4.96438 2.38753e-19)
(43.3997 5.44644 -9.23519e-19)
(43.6426 5.93589 1.49064e-18)
(43.8956 6.46943 -1.5852e-18)
(44.1887 7.02204 8.97376e-19)
(44.4997 7.61609 -7.74669e-19)
(44.8304 8.24218 4.59296e-19)
(45.2233 8.89305 -1.56093e-18)
(45.6867 9.58552 9.43117e-19)
(46.1943 10.3237 -1.74402e-18)
(46.7259 11.0695 0)
(47.2741 11.8201 -1.55864e-18)
(47.8727 12.6304 -1.649e-18)
(48.5186 13.4834 2.78838e-19)
(49.2462 14.3601 3.23687e-18)
(50.0495 15.2574 -3.27349e-18)
(50.8565 16.147 -4.55496e-19)
(51.692 17.0497 -5.42684e-18)
(52.666 17.9535 1.2668e-17)
(53.7791 18.8744 6.98353e-19)
(54.8904 19.7635 8.3097e-19)
(56.0105 20.744 -4.9404e-18)
(56.8187 21.682 0)
(56.4834 22.0612 8.58384e-18)
(50.5964 20.1263 -4.50863e-18)
(27.2967 10.8418 0)
(38.8441 -0.0349563 2.56047e-21)
(40.7014 -0.0577888 -9.37593e-23)
(40.7245 0.135575 -3.72716e-19)
(40.7681 0.155783 0)
(40.7651 0.291064 -6.63741e-21)
(40.8187 0.374994 -2.0755e-19)
(40.8962 0.492631 0)
(40.9753 0.61145 2.22936e-19)
(41.0488 0.747349 -2.81252e-19)
(41.127 0.890147 1.57901e-20)
(41.232 1.03766 1.85182e-19)
(41.3532 1.20078 -1.5114e-19)
(41.4754 1.39555 -1.13217e-19)
(41.6033 1.59899 0)
(41.7422 1.80389 0)
(41.8847 2.02426 0)
(42.019 2.26395 1.7232e-19)
(42.1479 2.51762 -1.75752e-19)
(42.2901 2.77292 5.48921e-19)
(42.4644 3.04115 -7.60281e-20)
(42.6563 3.33673 1.895e-19)
(42.8587 3.6133 3.15448e-19)
(43.0821 3.95313 -1.36444e-18)
(43.3174 4.34852 -1.28629e-18)
(43.6015 4.74596 0)
(43.9159 5.17907 8.61915e-19)
(44.2442 5.65261 -2.12327e-18)
(44.6004 6.15205 1.4028e-18)
(44.9528 6.69148 -7.5992e-19)
(45.3585 7.25984 4.49301e-19)
(45.8129 7.86654 -6.26636e-19)
(46.2873 8.51309 2.29079e-18)
(46.7749 9.17825 -2.65157e-18)
(47.2453 9.8499 3.50034e-18)
(47.7765 10.5686 1.47041e-18)
(48.4071 11.3447 -3.45135e-18)
(49.0482 12.1018 4.25829e-18)
(49.7633 12.8548 -2.72394e-18)
(50.5392 13.6258 3.73428e-20)
(51.3446 14.4043 0)
(52.2405 15.2052 4.50691e-18)
(53.2149 15.9898 3.01132e-18)
(54.1707 16.7621 2.97188e-19)
(55.1295 17.52 -8.48287e-18)
(56.2471 18.2631 -3.37898e-19)
(57.5019 19.164 -5.8189e-18)
(58.115 19.7785 0)
(57.0756 19.9119 9.14095e-18)
(49.5235 17.5478 -1.5273e-17)
(24.2809 8.13082 0)
(38.759 -0.0177309 0)
(40.8181 -0.0934153 0)
(40.8537 0.11187 2.07573e-19)
(40.8896 0.123464 -1.15633e-20)
(40.9202 0.296164 1.91811e-19)
(40.9835 0.381897 2.15371e-19)
(41.0496 0.516351 0)
(41.1273 0.63924 -2.23447e-19)
(41.1989 0.767825 1.7296e-19)
(41.2846 0.901777 0)
(41.3808 1.05258 -2.43806e-19)
(41.4972 1.19385 -4.26613e-20)
(41.632 1.34146 -2.17979e-22)
(41.7643 1.50775 2.43035e-22)
(41.9127 1.69203 0)
(42.088 1.89261 0)
(42.2846 2.10515 -5.72931e-20)
(42.4946 2.34422 -2.0654e-19)
(42.7171 2.62463 8.82125e-20)
(42.9474 2.91597 -5.23458e-20)
(43.1991 3.23389 1.28345e-19)
(43.4646 3.60171 -7.80087e-20)
(43.7408 3.94654 7.82819e-19)
(44.0134 4.3105 3.56777e-19)
(44.2795 4.71566 -6.24953e-19)
(44.586 5.14148 -1.00365e-18)
(44.9217 5.59656 7.49738e-19)
(45.2782 6.0761 1.13029e-18)
(45.6748 6.57721 0)
(46.0878 7.11406 0)
(46.5197 7.66106 0)
(47.0062 8.2199 -1.60542e-18)
(47.5582 8.81791 -1.11701e-18)
(48.1762 9.45814 -1.19927e-18)
(48.8337 10.0954 1.69027e-18)
(49.4812 10.7106 2.06123e-18)
(50.1716 11.3633 -1.00843e-18)
(50.9085 12.049 2.92221e-18)
(51.7234 12.7532 -1.70149e-18)
(52.5971 13.4488 -2.23371e-18)
(53.4683 14.1108 -2.71833e-18)
(54.3559 14.781 3.03113e-18)
(55.3805 15.4372 0)
(56.5441 16.0887 4.75564e-18)
(57.6716 16.7148 -2.72668e-18)
(58.7309 17.435 3.20867e-18)
(58.927 17.7817 0)
(57.1926 17.6677 -4.72767e-18)
(47.7472 14.9268 2.7606e-18)
(20.3569 5.45296 0)
(38.7015 0.000992788 1.32962e-19)
(40.9061 -0.0355959 0)
(40.9447 0.184565 3.22166e-19)
(40.9875 0.191036 -1.59082e-19)
(41.0127 0.35618 -1.85803e-19)
(41.0765 0.427839 5.20976e-21)
(41.163 0.536879 -5.80095e-21)
(41.2542 0.64607 0)
(41.3511 0.77299 -1.69231e-19)
(41.4548 0.898123 4.4523e-20)
(41.5875 1.03078 5.82391e-20)
(41.7261 1.19269 -3.22676e-20)
(41.8793 1.36035 -2.37077e-20)
(42.0453 1.53143 -1.07427e-20)
(42.2173 1.71247 7.8745e-21)
(42.3941 1.90789 0)
(42.5717 2.11537 -1.83548e-19)
(42.7606 2.33232 2.57857e-19)
(42.9565 2.54811 3.57175e-20)
(43.1865 2.79204 -1.06126e-20)
(43.4366 3.03434 7.43137e-20)
(43.7088 3.30359 0)
(44.0157 3.62263 1.44462e-19)
(44.3599 3.96224 5.80903e-19)
(44.7394 4.32003 7.99537e-19)
(45.1249 4.70459 1.00911e-18)
(45.5387 5.11852 0)
(45.965 5.55949 -7.90801e-19)
(46.4107 6.02646 -1.67809e-18)
(46.9078 6.51406 9.64227e-19)
(47.4479 7.04439 -2.08064e-18)
(48.0263 7.60858 -1.03924e-18)
(48.6276 8.1814 1.90107e-18)
(49.1859 8.73735 -7.06405e-19)
(49.7727 9.3228 -1.70504e-18)
(50.4756 9.9637 -9.4106e-19)
(51.1918 10.5838 -1.25759e-18)
(51.9733 11.1814 0)
(52.7953 11.7641 -2.02273e-18)
(53.6417 12.351 4.49496e-18)
(54.5663 12.9551 2.75358e-18)
(55.5622 13.5133 -3.27319e-18)
(56.5235 14.044 4.22047e-18)
(57.4609 14.5456 -2.22371e-18)
(58.6307 15.0926 5.64699e-18)
(59.5206 15.5763 1.05826e-19)
(59.5491 15.7281 0)
(56.537 15.3454 9.77615e-18)
(44.6503 12.1305 -8.33678e-18)
(15.5442 2.94029 -3.15172e-18)
(38.6544 0.00922952 -1.33073e-19)
(41.0324 -0.0812881 1.30251e-19)
(41.079 0.142475 -1.52714e-19)
(41.1204 0.138403 1.56963e-19)
(41.1656 0.317344 7.49519e-20)
(41.2363 0.389353 4.81696e-21)
(41.3154 0.515394 -2.50175e-21)
(41.4086 0.623777 0)
(41.5029 0.734391 4.37328e-20)
(41.5982 0.85867 -5.89662e-20)
(41.7259 0.974043 0)
(41.8802 1.08436 -3.05694e-21)
(42.0354 1.21662 -1.28207e-20)
(42.2024 1.35758 7.77704e-20)
(42.3957 1.51178 -1.48371e-19)
(42.6146 1.68258 -5.55916e-21)
(42.8518 1.85867 2.71935e-20)
(43.1186 2.06793 0)
(43.3968 2.30796 -1.62645e-19)
(43.6828 2.55612 3.59088e-19)
(44.0004 2.83921 -4.4798e-20)
(44.323 3.13267 0)
(44.6371 3.42906 0)
(44.9754 3.74735 -3.18768e-19)
(45.3283 4.10728 1.33573e-19)
(45.719 4.47974 -9.82827e-19)
(46.1472 4.87176 3.92791e-19)
(46.5965 5.2829 -2.31034e-19)
(47.0804 5.72264 8.13352e-19)
(47.5753 6.18787 3.51482e-19)
(48.0937 6.64387 1.23415e-18)
(48.648 7.10226 -1.20927e-18)
(49.2407 7.59132 7.66591e-19)
(49.9183 8.12177 -8.48692e-19)
(50.6667 8.65144 -1.03062e-18)
(51.3747 9.1417 -1.14332e-18)
(52.1062 9.6385 0)
(52.8818 10.1604 2.6997e-18)
(53.7324 10.7081 -1.01079e-18)
(54.6174 11.2228 -2.43687e-18)
(55.4873 11.6798 2.90634e-18)
(56.3556 12.1453 -9.42532e-20)
(57.3538 12.5843 -2.21991e-18)
(58.5161 13.0185 -2.87099e-20)
(59.6276 13.4687 -2.85997e-18)
(60.0565 13.705 -6.96667e-18)
(59.3826 13.6679 4.12788e-18)
(55.0098 12.8861 0)
(40.7923 9.32711 -5.82843e-18)
(10.4171 0.808874 1.11454e-17)
(38.6236 0.00916542 -2.27098e-22)
(41.1355 -0.0303659 -1.31077e-19)
(41.193 0.206107 3.23499e-20)
(41.2355 0.188565 1.13511e-21)
(41.2603 0.34849 -7.47833e-20)
(41.3316 0.39571 0)
(41.4337 0.492148 0)
(41.5363 0.591699 1.35745e-21)
(41.6495 0.68968 -6.37947e-20)
(41.7727 0.789188 1.28752e-20)
(41.9118 0.916237 1.14845e-21)
(42.0793 1.04184 -3.9443e-21)
(42.2678 1.17009 2.27773e-20)
(42.4534 1.307 -3.57616e-20)
(42.655 1.44349 2.1259e-19)
(42.8647 1.60176 -5.73183e-20)
(43.0807 1.76395 7.87566e-20)
(43.3131 1.92404 2.71792e-20)
(43.5624 2.09883 -3.095e-19)
(43.8373 2.28862 -2.33327e-19)
(44.1408 2.48195 7.74604e-21)
(44.5022 2.70644 -6.65782e-20)
(44.8939 2.96611 0)
(45.3066 3.25089 -3.67122e-19)
(45.7476 3.53402 7.80905e-21)
(46.2038 3.8582 1.21438e-19)
(46.6796 4.20783 1.04284e-19)
(47.1745 4.57768 2.82073e-19)
(47.6972 4.9582 0)
(48.264 5.35877 2.12644e-19)
(48.8588 5.80401 1.22515e-18)
(49.5085 6.28253 1.15529e-18)
(50.2042 6.7658 -6.46263e-19)
(50.832 7.21522 1.31358e-18)
(51.4333 7.67283 -1.06841e-18)
(52.1548 8.17778 -6.64075e-19)
(52.9016 8.68092 0)
(53.7032 9.15396 -1.80377e-18)
(54.5143 9.57336 -1.15216e-18)
(55.3403 9.99063 1.28706e-18)
(56.2348 10.4254 -1.54793e-18)
(57.1984 10.7956 1.84567e-18)
(58.1193 11.1387 0)
(59.0136 11.468 1.31284e-18)
(59.9353 11.7659 0)
(60.1609 11.8085 1.8138e-18)
(58.9173 11.5705 -4.33048e-18)
(52.6191 10.3464 2.4708e-18)
(35.6514 6.3587 0)
(6.68114 -0.43578 8.08171e-19)
(38.5765 0.00261424 -2.72081e-23)
(41.2609 -0.100395 -2.81304e-23)
(41.3199 0.129757 -3.3315e-20)
(41.3676 0.106311 -1.22582e-22)
(41.4106 0.290634 -8.90033e-22)
(41.4861 0.341817 -1.09465e-22)
(41.561 0.448821 1.21847e-22)
(41.6595 0.524175 -1.2818e-22)
(41.7681 0.615132 1.59421e-20)
(41.8867 0.696921 -4.41137e-23)
(42.0356 0.768014 -2.29972e-22)
(42.201 0.859304 6.99219e-22)
(42.3848 0.952227 3.36744e-20)
(42.5838 1.05877 -5.45837e-20)
(42.8081 1.17108 -8.5387e-20)
(43.0593 1.28638 5.6943e-20)
(43.3355 1.42031 -7.64153e-20)
(43.644 1.57425 -3.67721e-21)
(43.9664 1.74978 -4.83065e-21)
(44.3003 1.93883 0)
(44.6512 2.15694 -8.05597e-21)
(44.9924 2.38784 -5.25655e-21)
(45.379 2.61618 5.87602e-21)
(45.7766 2.88006 0)
(46.1943 3.16769 0)
(46.6664 3.46757 3.57984e-19)
(47.1701 3.78644 0)
(47.7049 4.12817 -2.82458e-19)
(48.2481 4.50748 0)
(48.8083 4.89028 1.42459e-20)
(49.3981 5.26208 -5.51385e-19)
(50.0061 5.63025 3.9142e-20)
(50.6034 6.01386 -8.11223e-19)
(51.2855 6.43823 7.24949e-20)
(52.0883 6.8753 4.7938e-19)
(52.8358 7.2731 7.48263e-19)
(53.5704 7.63525 -2.62211e-20)
(54.3401 8.01226 0)
(55.182 8.43656 -1.85868e-20)
(56.035 8.81392 2.20525e-20)
(56.8567 9.11607 0)
(57.6564 9.42722 -3.08289e-20)
(58.5832 9.70858 -1.47807e-19)
(59.753 10.019 -1.12653e-18)
(60.2928 10.1394 -2.39039e-20)
(59.9353 10.0747 0)
(57.2724 9.56941 0)
(48.7084 7.82937 3.58125e-19)
(29.4265 3.55344 -3.54186e-19)
(4.00761 -0.698642 7.97179e-19)
(38.5234 -0.00549481 -5.76466e-20)
(41.3836 -0.0564641 -6.10217e-20)
(41.4253 0.186459 -3.21137e-20)
(41.459 0.132675 -3.34267e-20)
(41.4819 0.286118 -3.09396e-20)
(41.5627 0.297116 2.96118e-20)
(41.6635 0.384929 0)
(41.7714 0.452257 0)
(41.8863 0.523165 -4.73942e-21)
(42.004 0.605657 4.41082e-23)
(42.1615 0.686957 -1.17359e-20)
(42.3511 0.765852 -1.26509e-21)
(42.5443 0.850731 -4.16931e-20)
(42.7516 0.932935 6.51808e-20)
(42.9737 1.02911 1.02564e-19)
(43.2069 1.13083 0)
(43.4499 1.23249 0)
(43.7156 1.33629 3.67669e-21)
(44.0057 1.45124 4.83219e-21)
(44.321 1.57875 -2.14658e-19)
(44.7063 1.6996 8.05471e-21)
(45.1296 1.86112 0)
(45.5566 2.04553 0)
(46.0307 2.23541 -7.14572e-20)
(46.5236 2.45798 -3.54954e-19)
(47.0279 2.70857 1.11888e-19)
(47.5553 2.98196 0)
(48.099 3.2692 -3.24987e-19)
(48.6886 3.56234 0)
(49.3114 3.88753 -1.42429e-20)
(49.9365 4.25372 0)
(50.6203 4.64843 0)
(51.3837 5.05551 2.16627e-19)
(52.0822 5.42874 2.55745e-19)
(52.6847 5.78809 0)
(53.3771 6.17131 0)
(54.1201 6.58693 2.62099e-20)
(54.9136 6.98139 0)
(55.6829 7.28494 1.85771e-20)
(56.4521 7.57914 -7.49335e-19)
(57.2778 7.88739 8.71573e-19)
(58.1705 8.13005 8.38544e-20)
(59.0444 8.37374 5.79017e-20)
(59.7571 8.57179 -1.24001e-18)
(59.8321 8.57558 -7.75546e-19)
(59.0843 8.38288 4.68158e-18)
(55.0369 7.67519 -2.12842e-18)
(43.7071 5.64049 -2.53591e-18)
(21.0549 1.23994 2.08292e-18)
(1.9183 -0.520185 0)
(38.4603 0.0033997 5.74068e-20)
(41.5037 -0.129345 -6.74533e-20)
(41.5565 0.121633 3.15197e-20)
(41.5884 0.0673338 -3.64659e-20)
(41.6114 0.233383 3.28779e-20)
(41.664 0.252945 -3.06289e-20)
(41.7387 0.329267 -1.3956e-21)
(41.8335 0.380746 1.55387e-21)
(41.9538 0.414383 4.61249e-21)
(42.0755 0.454307 1.38004e-22)
(42.2179 0.501306 1.28615e-20)
(42.4015 0.542876 5.28894e-20)
(42.601 0.593623 -4.5599e-20)
(42.8118 0.648211 -5.86114e-20)
(43.056 0.699598 -3.14592e-19)
(43.327 0.761739 1.98193e-20)
(43.6311 0.832332 -2.21211e-20)
(43.9653 0.917774 2.60589e-19)
(44.3178 1.01902 4.59873e-20)
(44.6688 1.13341 1.63032e-19)
(45.0228 1.28421 0)
(45.4305 1.4228 0)
(45.8625 1.59254 0)
(46.3129 1.7767 0)
(46.7924 1.97716 3.45518e-19)
(47.3276 2.1928 -8.99344e-19)
(47.9021 2.43619 0)
(48.501 2.7152 1.00571e-18)
(49.0887 3.02517 0)
(49.6915 3.32953 0)
(50.3479 3.63368 -1.22779e-18)
(51.0152 3.93684 7.5431e-19)
(51.6109 4.23781 -1.75006e-18)
(52.2481 4.5671 5.01674e-19)
(53.0593 4.92735 0)
(53.8434 5.27718 0)
(54.5685 5.55266 9.16515e-19)
(55.3063 5.82053 -3.16254e-18)
(56.1073 6.16156 0)
(56.8978 6.4518 -2.27324e-18)
(57.6397 6.66586 3.4618e-18)
(58.3543 6.89766 -4.04426e-18)
(59.3369 7.15957 2.20847e-18)
(59.7661 7.22242 -2.69397e-18)
(59.7621 7.22235 7.25263e-18)
(57.6413 6.9804 -6.45387e-18)
(51.1488 6.11957 4.32988e-18)
(36.2649 3.84326 -9.70087e-18)
(11.7616 -0.146041 1.15673e-17)
(0.652957 -0.135745 -7.43874e-18)
(38.4038 0.0187214 1.31921e-19)
(41.5777 -0.0862556 -1.13976e-20)
(41.6267 0.152963 0)
(41.6497 0.0797741 6.91897e-20)
(41.6635 0.221913 1.57755e-19)
(41.737 0.192945 -4.61574e-21)
(41.8136 0.255746 0)
(41.9071 0.283922 0)
(42.0047 0.337575 6.80966e-22)
(42.1328 0.368081 -7.58586e-22)
(42.2843 0.402398 -3.68468e-20)
(42.4595 0.434422 4.00682e-20)
(42.6591 0.46273 9.03963e-20)
(42.8676 0.497236 -1.33335e-19)
(43.0927 0.532042 2.03335e-19)
(43.331 0.570941 3.99213e-20)
(43.5867 0.606815 -4.30891e-19)
(43.8767 0.640995 -7.80685e-19)
(44.2005 0.682706 0)
(44.5713 0.724351 4.50519e-19)
(44.993 0.756033 5.82189e-19)
(45.4275 0.837382 0)
(45.9151 0.923504 -9.45575e-19)
(46.4309 1.0428 0)
(46.9718 1.18452 0)
(47.5171 1.3548 8.96633e-19)
(48.0857 1.54263 5.52137e-19)
(48.679 1.74219 1.39331e-18)
(49.331 1.9614 0)
(50.0049 2.22441 0)
(50.6522 2.51576 5.73046e-19)
(51.336 2.83698 7.26817e-19)
(52.1311 3.18657 2.77866e-18)
(52.9204 3.52102 7.23526e-20)
(53.5544 3.83031 8.24099e-20)
(54.1943 4.11871 -3.08106e-18)
(54.9104 4.46513 -1.05721e-19)
(55.6823 4.82429 4.22587e-18)
(56.4025 5.0709 2.5737e-18)
(57.109 5.31185 1.47765e-18)
(57.8685 5.56697 3.59208e-18)
(58.7766 5.79709 1.77993e-19)
(59.3824 5.96274 -4.27162e-18)
(59.394 6.03576 -2.6417e-18)
(58.4832 5.98424 -8.08795e-18)
(55.1199 5.6069 9.2272e-18)
(45.924 4.40497 -4.16833e-18)
(27.6804 1.81529 0)
(6.67742 -0.560918 0)
(0.00682069 0.11714 1.46759e-18)
(38.3545 0.0318115 -4.19305e-19)
(41.6872 -0.134992 -1.70517e-19)
(41.7372 0.105985 1.65946e-19)
(41.738 0.025087 -4.78894e-21)
(41.7328 0.193665 -3.2848e-19)
(41.7704 0.169626 5.25663e-21)
(41.8379 0.226724 0)
(41.9194 0.217407 1.37407e-19)
(42.0264 0.21912 1.57394e-21)
(42.1266 0.224871 -2.19873e-21)
(42.2724 0.221972 5.17403e-20)
(42.4523 0.220776 -8.5611e-20)
(42.6437 0.216984 4.26668e-21)
(42.8543 0.211335 1.19475e-19)
(43.0951 0.203212 0)
(43.368 0.197246 0)
(43.6663 0.196595 3.32513e-19)
(43.9992 0.20397 5.77998e-19)
(44.3457 0.22165 0)
(44.7018 0.257982 -4.49099e-19)
(45.0876 0.328927 -5.80247e-19)
(45.5375 0.368215 -1.99939e-19)
(45.9942 0.444163 2.19284e-19)
(46.4898 0.527303 8.79771e-19)
(47.0287 0.6319 3.55719e-19)
(47.634 0.765301 4.93098e-19)
(48.2781 0.934933 -1.69161e-18)
(48.9307 1.14534 -1.40156e-18)
(49.5569 1.37972 1.76003e-18)
(50.2049 1.61863 -2.14489e-18)
(50.9236 1.87416 0)
(51.6677 2.13613 0)
(52.301 2.38508 9.77819e-20)
(52.8736 2.64647 -2.15319e-18)
(53.6371 2.93804 2.68402e-18)
(54.4602 3.27461 4.80629e-18)
(55.1931 3.53638 -1.81058e-18)
(55.9008 3.74505 -4.4408e-18)
(56.6552 4.03744 -5.1602e-18)
(57.3895 4.28835 -3.10096e-18)
(58.1 4.50111 -1.58079e-19)
(58.8411 4.76023 3.80863e-18)
(59.1018 4.86704 0)
(59.0648 4.88562 2.75746e-18)
(57.429 4.87725 3.17842e-18)
(51.5228 4.36436 3.66892e-18)
(38.4527 2.82824 1.25234e-17)
(16.0121 -0.0710423 -4.63364e-18)
(3.18309 -0.455921 0)
(-0.479708 0.0812878 0)
(38.3202 0.0405764 -3.47112e-20)
(41.7639 -0.0718352 3.09629e-19)
(41.7926 0.176045 -1.70761e-19)
(41.7776 0.0590142 3.90761e-19)
(41.7772 0.177498 1.85791e-19)
(41.8111 0.133312 -7.96977e-22)
(41.8555 0.167244 -5.82692e-21)
(41.9381 0.173313 -1.28554e-19)
(42.0283 0.161062 -9.16568e-21)
(42.1303 0.157153 -2.10186e-21)
(42.2553 0.146364 -8.97845e-21)
(42.42 0.129059 -3.46491e-21)
(42.6062 0.109587 -9.95877e-20)
(42.7985 0.0888014 -1.90319e-19)
(43.0101 0.0641793 4.96279e-20)
(43.2336 0.035122 -5.53589e-20)
(43.488 -0.00283135 0)
(43.7835 -0.045131 -4.66047e-19)
(44.121 -0.0874788 0)
(44.4991 -0.153316 0)
(44.9183 -0.215968 0)
(45.3805 -0.233855 -3.9434e-19)
(45.8983 -0.244635 1.38209e-18)
(46.4453 -0.226072 -1.1919e-18)
(47.0177 -0.176418 0)
(47.599 -0.109685 -4.96922e-19)
(48.2147 -0.0167188 -1.7809e-18)
(48.8826 0.102071 -2.89135e-18)
(49.6067 0.258492 -2.6736e-18)
(50.3419 0.457134 2.11707e-18)
(51.0349 0.690391 -2.61871e-18)
(51.7177 0.957655 1.5211e-18)
(52.503 1.26338 3.83004e-18)
(53.3926 1.57316 0)
(54.1246 1.88269 2.79329e-18)
(54.73 2.12215 -6.44663e-18)
(55.4123 2.40123 -1.41845e-19)
(56.1625 2.74882 4.39314e-18)
(56.8487 2.99652 2.57965e-18)
(57.5237 3.25405 0)
(58.3273 3.54146 3.50165e-18)
(58.9426 3.72794 -3.90996e-18)
(59.06 3.80293 9.00904e-18)
(58.0955 3.91465 0)
(54.4136 3.70236 -1.27905e-17)
(45.8417 2.85821 3.5457e-18)
(29.1826 1.13777 -4.08084e-18)
(8.56557 -0.702194 -4.56799e-18)
(1.25771 -0.0753694 1.02039e-17)
(-0.587809 0.0812289 6.90459e-21)
(38.3015 0.0669713 3.23904e-19)
(41.9151 -0.095478 -3.86984e-19)
(41.9267 0.170722 4.17935e-19)
(41.8662 0.0876293 -8.3326e-19)
(41.7997 0.211313 4.75939e-19)
(41.8144 0.143514 -2.65444e-20)
(41.8444 0.16824 2.46929e-19)
(41.904 0.121995 0)
(41.9752 0.0970087 2.0902e-19)
(42.077 0.047276 -1.76994e-19)
(42.1998 0.00477768 5.30436e-21)
(42.3535 -0.0459465 1.5493e-21)
(42.5318 -0.101215 9.92532e-20)