/*--------------------------------*- C++ -*----------------------------------*\
| =========                 |                                                 |
| \\      /  F ield         | OpenFOAM: The Open Source CFD Toolbox           |
|  \\    /   O peration     | Version:  v1912                                 |
|   \\  /    A nd           | Website:  www.openfoam.com                      |
|    \\/     M anipulation  |                                                 |
\*---------------------------------------------------------------------------*/
FoamFile
{
    version     2.0;
    format      ascii;
    class       volScalarField;
    location    "0.05";
    object      p;
}
// * * * * * * * * * * * * * * * * * * * * * * * * * * * * * * * * * * * * * //

dimensions      [0 2 -2 0 0 0 0];


internalField   nonuniform List<scalar> 
6600
(
83.5908
79.0188
76.6314
75.2756
74.5447
74.1147
73.8927
73.9018
74.0876
74.4478
74.9848
75.7082
76.6932
77.9861
79.5127
81.2847
83.2814
85.4299
87.6802
90.1086
92.8154
95.8277
99.1077
102.49
105.891
109.387
112.863
116.101
119.052
121.603
123.56
124.666
124.926
124.171
122.028
118.239
112.33
103.622
91.8075
76.4236
56.8062
32.5103
2.63573
-33.741
-77.2718
-128.726
-188.743
-257.607
-338.387
-425.804
80.4851
75.9163
74.2163
72.8291
71.7275
70.93
70.537
70.2564
70.0959
70.1783
70.4438
70.8825
71.535
72.4414
73.5911
74.9409
76.4072
77.9514
79.5429
81.3074
83.2513
85.3581
87.609
89.8723
92.1568
94.3732
96.6012
98.5602
100.075
100.921
101.024
99.9579
97.768
94.3546
89.3725
82.3943
73.2061
61.1861
45.6454
26.0959
1.91516
-27.1974
-62.274
-104.085
-153.392
-211.1
-277.457
-352.417
-437.554
-527.756
76.2951
71.6173
70.7238
69.4623
68.2625
67.28
66.5528
65.9785
65.6164
65.4079
65.3723
65.5152
65.8613
66.4567
67.2514
68.1517
69.099
70.1152
71.2329
72.4058
73.6641
74.9198
76.1687
77.3902
78.4873
79.3488
79.8212
79.9563
79.6578
78.7208
76.888
73.7864
69.1576
63.0367
55.1483
44.7586
31.8592
15.9383
-3.51856
-27.2208
-55.9242
-90.0704
-130.28
-177.318
-231.914
-294.994
-366.745
-446.25
-532.73
-620.644
71.4503
66.7193
66.5574
65.0364
63.722
62.6342
61.6592
60.8745
60.3807
59.9475
59.7373
59.6239
59.6969
59.9525
60.2716
60.6227
61.0127
61.4549
62.0134
62.5659
63.0896
63.5125
63.6804
63.6756
63.4512
63.0351
62.1768
60.5941
58.2207
55.0057
50.9307
45.5906
38.4733
29.5005
18.5016
4.91314
-11.6254
-31.5496
-55.3033
-83.3619
-116.449
-155.203
-200.055
-251.658
-310.653
-377.858
-453.317
-535.253
-621.203
-704.279
66.2172
62.125
62.1051
59.7697
58.1115
56.8669
55.7497
54.9289
54.2307
53.6559
53.274
52.886
52.6807
52.4945
52.272
52.0267
51.796
51.6353
51.4483
51.2398
50.9201
50.45
49.743
48.6382
47.0821
44.9487
42.3455
39.0639
34.8719
29.5099
22.9243
15.0056
5.39484
-6.34493
-20.5713
-37.5106
-57.5582
-81.2231
-108.91
-141.057
-178.217
-220.902
-269.555
-324.666
-386.701
-456.371
-533.682
-616.468
-700.537
-777.064
60.239
58.2816
56.6366
53.4836
51.6748
50.61
49.1374
48.2684
47.3937
46.5648
45.7946
45.0404
44.3927
43.7141
43.0084
42.2547
41.4225
40.4964
39.459
38.2852
36.9354
35.3068
33.4166
31.1362
28.3387
24.9044
20.5797
15.3997
9.18429
1.70921
-7.2128
-17.734
-30.1253
-44.6748
-61.8041
-81.8816
-105.253
-132.316
-163.467
-199.056
-239.517
-285.268
-336.62
-393.945
-457.563
-527.996
-605.377
-687.553
-768.35
-836.34
54.8401
51.6481
49.2117
45.9136
44.5644
43.1043
41.7583
40.714
39.5862
38.5048
37.3875
36.1797
34.9642
33.66
32.3139
30.9293
29.4657
27.816
25.9253
23.78
21.3304
18.5213
15.2803
11.5909
7.25535
2.17421
-3.87452
-10.8586
-18.9662
-28.4718
-39.6266
-52.6064
-67.5927
-84.8698
-104.844
-127.786
-153.989
-183.85
-217.695
-255.856
-298.661
-346.37
-399.222
-457.459
-521.284
-591.096
-667.053
-747.072
-823.027
-880.581
48.3223
42.9121
41.5541
38.0261
37.3838
34.893
33.5751
32.1726
30.5852
29.2346
27.7383
26.2332
24.5794
22.6835
20.6084
18.3649
15.9368
13.333
10.488
7.33246
3.75582
-0.322106
-5.00945
-10.281
-16.1449
-22.7675
-30.4093
-39.2873
-49.4375
-60.9883
-74.1861
-89.3141
-106.653
-126.354
-148.686
-173.989
-202.533
-234.547
-270.34
-310.141
-354.216
-402.773
-455.915
-513.799
-576.634
-644.793
-717.98
-793.893
-863.715
-909.496
40.1881
33.7535
33.9858
29.7731
29.948
27.0951
25.4657
23.5132
21.4061
19.2803
17.1126
15.0078
12.7197
10.2553
7.60286
4.62445
1.25801
-2.4614
-6.4779
-10.8477
-15.6381
-20.9326
-26.8754
-33.6682
-41.3063
-49.7788
-59.154
-69.6699
-81.6134
-95.1609
-110.359
-127.422
-146.638
-168.269
-192.586
-219.704
-249.82
-283.224
-320.086
-360.618
-405
-453.325
-505.664
-562.094
-622.776
-688.17
-757.907
-828.725
-891.097
-925.02
30.1698
23.7196
25.3375
20.2024
21.6706
18.4184
16.959
14.7172
12.2351
9.48432
6.59744
3.43753
0.0618314
-3.29829
-6.80212
-10.6422
-14.8559
-19.5233
-24.7166
-30.4385
-36.6825
-43.4835
-50.8447
-58.9534
-68.0004
-78.0353
-89.1124
-101.396
-114.982
-130.084
-146.973
-165.759
-186.673
-209.82
-235.382
-263.689
-294.831
-328.879
-366.026
-406.385
-450.12
-497.311
-547.926
-601.993
-659.625
-721.2
-786.764
-852
-906.585
-930.386
20.5152
12.2179
17.3902
10.4281
11.7237
8.18042
6.77022
4.2838
1.65825
-1.10702
-4.35505
-8.24307
-12.4248
-16.8931
-21.7583
-26.865
-32.1681
-37.8441
-44.0706
-50.9423
-58.4699
-66.6835
-75.5912
-85.167
-95.6753
-107.278
-119.89
-133.652
-148.796
-165.439
-183.73
-203.806
-225.81
-249.955
-276.412
-305.202
-336.54
-370.572
-407.273
-446.758
-489.114
-534.33
-582.383
-633.253
-687.031
-744.101
-804.277
-863.879
-912.634
-929.467
11.0395
3.3953
9.54774
1.30459
2.96392
-2.19372
-3.65804
-6.97443
-10.056
-13.1407
-16.8171
-20.8841
-25.2687
-30.5015
-36.4806
-42.8924
-49.6982
-56.8798
-64.4165
-72.4642
-81.2161
-90.7437
-101.097
-112.203
-124.001
-136.786
-150.762
-165.874
-182.255
-200.051
-219.368
-240.388
-263.266
-287.999
-314.728
-343.631
-374.687
-407.954
-443.538
-481.419
-521.677
-564.311
-609.203
-656.232
-705.303
-757.132
-810.682
-863.099
-905.34
-920.591
3.63923
-5.11543
2.18142
-7.93056
-4.67309
-11.3625
-12.547
-16.9864
-20.9017
-25.0094
-29.759
-34.5101
-39.5534
-45.3325
-51.6499
-58.6832
-66.64
-75.3375
-84.5186
-94.0673
-104.076
-114.761
-126.291
-138.774
-152.14
-166.277
-181.354
-197.611
-215.02
-233.677
-253.764
-275.347
-298.473
-323.326
-349.935
-378.314
-408.564
-440.693
-474.63
-510.457
-548.119
-587.508
-628.557
-671.144
-715.197
-760.711
-805.77
-847.294
-877.312
-891.283
-1.79673
-12.7437
-5.79199
-16.9223
-11.8477
-20.2974
-20.202
-26.0183
-30.011
-35.2016
-41.1927
-47.2098
-53.7669
-60.7183
-67.8121
-75.4982
-84.0166
-93.4112
-103.789
-115.027
-126.789
-138.938
-151.692
-165.233
-179.629
-194.919
-211.053
-228.2
-246.37
-265.648
-286.1
-307.894
-331.105
-355.722
-381.809
-409.414
-438.477
-468.979
-500.907
-534.169
-568.794
-604.651
-641.478
-678.95
-717.472
-755.688
-790.969
-818.221
-830.913
-840.876
-10.9707
-20.4671
-11.6337
-25.1856
-18.2671
-29.3618
-27.8236
-35.4485
-38.8515
-44.9366
-51.421
-58.2136
-66.0808
-74.425
-83.0974
-92.3052
-101.902
-111.953
-122.826
-134.812
-147.936
-161.755
-175.961
-190.812
-206.434
-222.779
-239.802
-257.616
-276.277
-295.971
-316.654
-338.318
-361.104
-385.106
-410.364
-436.813
-464.406
-493.086
-522.735
-553.367
-584.816
-616.818
-649.058
-681.534
-713.663
-743.905
-769.997
-787.637
-792.164
-795.431
-19.6958
-27.5718
-18.8175
-33.1777
-24.629
-37.9914
-35.2624
-44.8652
-47.5995
-54.7102
-61.189
-68.4346
-76.9898
-86.1164
-96.1254
-106.967
-118.281
-130.018
-142.207
-154.923
-168.572
-183.527
-199.239
-215.253
-231.774
-248.965
-266.913
-285.47
-304.599
-324.351
-344.846
-366.243
-388.563
-411.793
-435.921
-461.024
-487.035
-513.799
-541.168
-568.987
-597.185
-625.549
-653.658
-681.521
-707.837
-731.005
-748.897
-759.593
-767.438
-768.045
-26.8846
-33.3642
-25.0885
-39.3099
-30.6805
-45.3846
-41.3269
-53.0566
-54.9368
-63.713
-70.076
-78.1531
-87.1355
-96.6432
-107.382
-119.179
-131.816
-145.315
-159.489
-173.98
-188.623
-204.052
-220.865
-238.478
-256.397
-274.57
-293.008
-311.863
-331.281
-351.135
-371.421
-392.277
-413.758
-435.931
-458.947
-482.651
-506.951
-531.769
-556.915
-582.308
-607.778
-632.941
-657.494
-681.016
-702.534
-720.572
-732.996
-738.134
-743.372
-744.835
-32.176
-37.5912
-30.2709
-43.8964
-35.454
-50.8228
-45.6876
-59.3754
-59.9894
-70.978
-77.073
-86.5007
-96.0653
-106.138
-117.501
-129.853
-143.273
-157.945
-173.694
-190.286
-207.235
-224.067
-241.408
-259.796
-278.823
-298.206
-317.776
-337.275
-356.829
-376.453
-396.283
-416.411
-437.034
-458.189
-479.78
-502.003
-524.801
-547.977
-571.356
-594.694
-617.772
-640.263
-661.927
-682.102
-699.741
-712.705
-719.446
-724.969
-726.209
-728.25
-35.8397
-40.2142
-34.271
-46.7245
-38.6107
-54.5143
-48.5888
-63.8392
-63.0957
-76.0988
-81.3913
-92.5102
-102.528
-113.7
-126.068
-139.078
-153.073
-168.416
-185.039
-202.912
-222.001
-241.512
-260.797
-280.385
-300.515
-320.829
-341.17
-361.429
-381.441
-401.072
-420.525
-439.873
-459.254
-478.947
-499.272
-520.041
-541.268
-562.938
-584.803
-606.758
-628.431
-648.961
-667.852
-684.755
-698.671
-707.797
-711.384
-714.132
-715.659
-716.9
-37.5967
-41.1072
-37.1018
-47.4739
-41.1204
-56.1027
-50.2968
-66.3033
-64.6691
-79.1512
-83.4025
-96.0244
-105.8
-118.247
-131.732
-145.878
-161.088
-177.359
-194.669
-213.319
-233.533
-255.058
-276.839
-298.458
-320.295
-342.23
-363.858
-385.011
-405.507
-425.246
-444.211
-462.587
-480.853
-499.169
-517.64
-536.766
-556.583
-577.02
-598.114
-619.477
-639.848
-658.536
-675.248
-688.842
-698.222
-702.869
-707.119
-707.441
-709.009
-709.624
-37.5884
-40.4771
-38.5847
-46.4135
-42.8781
-55.3222
-51.2257
-66.496
-64.6926
-80.0098
-83.4292
-97.4563
-106.486
-120.002
-133.768
-148.882
-165.694
-183.474
-202.034
-221.7
-242.803
-265.747
-289.916
-314.096
-338.016
-361.87
-385.385
-408.018
-429.497
-449.775
-468.689
-486.333
-502.986
-519.291
-535.902
-552.998
-570.997
-590.213
-610.508
-631.298
-651.26
-669.527
-684.566
-694.235
-697.755
-700.209
-701.475
-702.856
-704.48
-705.048
-36.4774
-38.7775
-38.4668
-44.2902
-43.103
-52.5129
-51.4791
-64.1109
-63.8953
-78.4257
-81.4865
-96.3482
-104.808
-119.344
-132.944
-148.664
-166.428
-185.594
-206.048
-227.563
-249.853
-273.569
-299.504
-326.554
-353.45
-379.888
-405.727
-430.558
-453.797
-475.089
-494.137
-511.1
-526.427
-540.626
-554.435
-568.915
-584.672
-602.007
-621.502
-642.262
-662.542
-680.931
-694.588
-700.865
-700.776
-699.835
-699.85
-700.877
-702.045
-702.653
-33.991
-36.2482
-37.7006
-41.1502
-42.2121
-48.7416
-50.1327
-59.6189
-62.3027
-74.2956
-78.5569
-92.9634
-101.075
-116.215
-129.527
-145.803
-163.804
-183.592
-205.502
-229.31
-254.199
-279.581
-306.543
-335.674
-365.726
-395.557
-424.619
-452.398
-478.247
-501.529
-521.85
-538.798
-552.581
-564.097
-574.503
-585.046
-597.183
-612.049
-630.078
-650.554
-672.189
-691.56
-703.611
-707.147
-707.232
-703.774
-701.706
-700.362
-699.765
-699.887
-30.9332
-32.8037
-35.304
-37.4707
-40.2893
-44.511
-47.4049
-54.6087
-58.7985
-68.4728
-74.4055
-87.0164
-95.7653
-110.773
-123.847
-140.67
-158.561
-178.685
-201.25
-226.143
-253.461
-282.094
-311.492
-342.546
-375.195
-408.565
-441.595
-473.342
-502.834
-529.184
-551.591
-569.255
-582.492
-591.661
-597.643
-602.739
-609.193
-618.605
-633.136
-653.626
-678.076
-698.852
-709.676
-713.537
-710.915
-706.298
-701.642
-697.809
-695.581
-694.839
-27.6895
-28.8783
-32.4833
-33.2538
-37.4172
-39.9572
-44.0727
-49.1705
-54.187
-62.0225
-69.0089
-79.5765
-88.9464
-103.181
-116.117
-133.082
-150.833
-171.149
-194.105
-219.55
-247.944
-279.158
-311.842
-346.067
-382.032
-419.103
-456.483
-492.962
-527.227
-557.903
-583.834
-604.13
-617.761
-624.6
-626.06
-624.336
-621.794
-621.96
-630.2
-648.941
-674.492
-698.31
-711.029
-713.545
-710.419
-704.672
-698.456
-692.888
-688.954
-686.942
-24.2651
-25.2474
-29.6197
-29.082
-34.1957
-35.0198
-40.0684
-43.5998
-48.9247
-55.2946
-62.2574
-71.8133
-80.9872
-94.0275
-106.791
-123.475
-140.94
-161.295
-184.378
-210.143
-239.149
-272.036
-307.687
-345.165
-384.906
-426.396
-468.743
-510.829
-551.042
-587.508
-618.671
-643.047
-658.757
-665.161
-662.552
-653.11
-639.182
-625.538
-621.629
-632.375
-656.182
-682.702
-703.586
-707.167
-706.255
-702.813
-697.54
-690.996
-685.624
-682.158
-21.2726
-20.7429
-26.2839
-25.0656
-30.4803
-30.6517
-35.6521
-38.3228
-43.2875
-48.8025
-54.9558
-63.6146
-72.3583
-83.8794
-96.429
-112.1
-129.118
-149.186
-172.088
-198.078
-227.115
-260.405
-298.513
-339.664
-383.437
-429.791
-477.751
-526.287
-573.666
-617.708
-655.968
-686.774
-707.06
-715.268
-710.329
-693.31
-665.572
-633.426
-609.301
-607.62
-625.081
-654.511
-683.022
-700.976
-709.659
-710.795
-705.69
-697.755
-690.847
-686.542
-18.9608
-17.3135
-22.6047
-21.9081
-26.1542
-27.0216
-30.7742
-33.4793
-37.6719
-42.4483
-48.1825
-55.5321
-63.5563
-73.9222
-85.4095
-100.02
-116.283
-135.611
-157.798
-183.874
-213.398
-246.454
-284.886
-328.756
-376.773
-428.363
-482.7
-538.676
-594.491
-647.733
-695.585
-734.755
-761.973
-775.203
-770.75
-748.502
-707.965
-653.766
-604.285
-579.854
-589.271
-626.485
-668.288
-702.075
-721.373
-727.305
-722.732
-712.343
-702.945
-698.163
-17.8268
-15.9677
-19.2134
-19.6957
-21.8779
-23.9397
-26.1058
-29.025
-32.2282
-36.3609
-41.5853
-47.8118
-55.1313
-64.2911
-74.6495
-87.8334
-102.923
-121.241
-142.298
-167.45
-197.212
-230.907
-269.403
-314.193
-365.071
-421.601
-482.798
-546.949
-612.304
-676.734
-736.434
-786.528
-824.649
-846.809
-846.092
-823.109
-778.105
-696.002
-621.769
-573.235
-568.926
-602.699
-655.929
-700.5
-724.755
-733.527
-730.091
-720.603
-712.817
-709.995
-20.0637
-18.6551
-15.4769
-18.2719
-18.2661
-21.2963
-22.3449
-25.2814
-27.6968
-30.9371
-35.6492
-40.9065
-47.4782
-55.7347
-64.9053
-76.8327
-90.6673
-107.455
-127.367
-151.325
-180.264
-214.195
-253.111
-298.12
-350.553
-410.964
-478.881
-551.5
-627.487
-705.096
-778.202
-842.106
-894.833
-927.828
-936.38
-911.1
-859.102
-771.108
-676.187
-608.468
-588.938
-615.237
-656.516
-693.579
-715.882
-723.375
-720.597
-714.789
-711.547
-712.133
83.8817
79.335
76.9567
75.6139
74.9314
74.5471
74.3575
74.4175
74.663
75.0752
75.6955
76.4927
77.5437
78.9033
80.5263
82.4158
84.5581
86.8995
89.3652
92.063
95.0551
98.3853
102.011
105.815
109.736
113.736
117.772
121.681
125.422
128.866
131.924
134.233
135.748
136.377
135.843
133.911
130.209
124.103
115.117
102.875
86.7651
66.2222
40.665
9.21109
-28.7706
-74.372
-128.129
-188.967
-263.44
-342.361
80.7757
76.241
74.5437
73.1824
72.1268
71.3646
71.0102
70.7849
70.6814
70.8347
71.1859
71.6886
72.4098
73.4032
74.6627
76.1453
77.7779
79.5141
81.3357
83.3576
85.5858
88.0204
90.6073
93.284
96.0232
98.7988
101.581
104.242
106.571
108.322
109.46
109.712
108.897
106.842
103.389
98.3029
91.2098
81.5142
68.6797
52.2689
31.5664
6.00982
-24.9431
-62.218
-106.27
-158.441
-218.964
-287.128
-366.7
-450.244
76.5877
71.9578
71.0607
69.8393
68.6731
67.7225
67.0447
66.5358
66.243
66.1297
66.1463
66.3572
66.7932
67.4939
68.4147
69.468
70.5905
71.7996
73.1495
74.5879
76.1421
77.7416
79.3611
80.9868
82.529
83.9403
85.0211
85.8816
86.4289
86.4502
85.6476
83.844
80.5767
75.8351
69.4207
60.9707
50.2606
36.7132
19.6983
-1.11579
-26.5451
-57.1797
-93.5131
-136.392
-186.397
-244.442
-310.967
-385.101
-466.99
-549.75
71.7428
67.0746
66.8957
65.436
64.1538
63.1016
62.1899
61.4769
61.0865
60.7053
60.5612
60.5379
60.7051
61.0812
61.5426
62.0545
62.6253
63.2806
64.0588
64.8947
65.7274
66.4895
67.0895
67.5566
67.8436
67.9218
67.705
66.8625
65.3745
63.1598
60.1203
56.0507
50.324
42.829
33.3857
21.5734
7.04693
-10.5261
-31.7307
-57.0595
-87.174
-122.646
-163.997
-211.943
-267.075
-330.08
-401.301
-479.174
-561.789
-641.307
66.5059
62.4845
62.4365
60.2052
58.5689
57.3373
56.3531
55.6227
54.9997
54.4585
54.1682
53.8605
53.7702
53.7281
53.651
53.5648
53.5166
53.5651
53.652
53.7295
53.7378
53.6397
53.3587
52.7265
51.7492
50.2726
48.3231
45.7963
42.4797
38.153
32.587
25.8381
17.6021
7.4363
-5.05268
-20.1875
-38.2799
-59.8102
-85.211
-114.834
-149.244
-189.042
-234.694
-286.77
-345.751
-412.231
-486.381
-566.221
-648.545
-723.594
60.5288
58.6461
57.0016
53.9636
52.136
51.0565
49.7712
49.1651
48.2483
47.3676
46.7902
46.051
45.5963
45.0396
44.4786
43.9
43.2734
42.5667
41.8131
40.9471
39.9384
38.7218
37.2978
35.5041
33.2396
30.4341
26.8814
22.5557
17.2513
10.8424
3.05302
-6.34165
-17.4418
-30.5275
-45.9645
-64.2181
-85.6983
-110.721
-139.757
-173.189
-211.296
-254.579
-303.492
-358.474
-419.878
-488.223
-563.687
-644.219
-725.098
-794.142
55.1179
52.0506
49.6069
46.407
45.0446
43.7009
42.3707
41.8073
40.3632
39.3666
38.4153
37.2881
36.2299
35.0631
33.877
32.6842
31.4408
30.0586
28.4595
26.6332
24.5487
22.1393
19.3685
16.2236
12.5094
8.08101
2.81196
-3.29416
-10.4653
-18.96
-29.0011
-40.825
-54.5357
-70.3868
-88.7617
-109.988
-134.393
-162.428
-194.445
-230.726
-271.612
-317.441
-368.498
-425.114
-487.547
-556.229
-631.513
-711.342
-789.341
-850.477
48.7322
43.3091
41.9535
38.5433
37.9676
35.6038
34.2814
33.055
31.4064
30.2048
28.8231
27.3852
25.9058
24.159
22.2632
20.2195
18.0369
15.7007
13.1678
10.3615
7.18901
3.55039
-0.660785
-5.39267
-10.6488
-16.5748
-23.3979
-31.4046
-40.6144
-51.1639
-63.2829
-77.2462
-93.3728
-111.793
-132.666
-156.409
-183.34
-213.706
-247.9
-286.21
-328.831
-376.042
-428.047
-485.065
-547.328
-615.225
-688.877
-766.238
-839.784
-891.171
40.53
34.0695
34.3861
30.4115
30.624
27.7323
26.2187
24.378
22.2878
20.3293
18.214
16.2305
14.0993
11.7863
9.32811
6.57265
3.46156
0.0259564
-3.68192
-7.68178
-12.0537
-16.8752
-22.3022
-28.5166
-35.4948
-43.2913
-51.9136
-61.6041
-72.6275
-85.1367
-99.2733
-115.182
-133.217
-153.654
-176.703
-202.508
-231.285
-263.361
-298.944
-338.269
-381.619
-429.177
-481.035
-537.347
-598.321
-664.371
-735.231
-808.535
-875.718
-915.537
30.3077
23.8087
25.632
21.3701
22.1695
19.0029
17.824
15.6007
13.1962
10.5394
7.72948
4.71509
1.47927
-1.71259
-5.01565
-8.62714
-12.5946
-16.9727
-21.8329
-27.1751
-32.9943
-39.3024
-46.1175
-53.6321
-62.0426
-71.3563
-81.6916
-93.1587
-105.885
-120.098
-135.979
-153.692
-173.45
-195.43
-219.876
-247.043
-277.082
-310.097
-346.337
-385.958
-429.108
-475.977
-526.65
-581.217
-639.841
-702.922
-770.29
-838.395
-897.745
-926.606
20.5727
11.9695
16.7201
12.1487
12.8581
8.99456
7.71262
5.16416
2.62777
-0.0443107
-3.20244
-6.94028
-10.9837
-15.2646
-19.9308
-24.8231
-29.8678
-35.2345
-41.1166
-47.604
-54.7057
-62.4398
-70.8032
-79.7725
-89.6071
-100.512
-112.401
-125.42
-139.703
-155.46
-172.805
-191.922
-212.933
-236.046
-261.487
-289.405
-319.918
-353.194
-389.276
-428.295
-470.45
-515.832
-564.453
-616.391
-671.762
-730.806
-793.634
-856.162
-908.228
-928.65
11.112
3.41274
9.89808
2.08861
3.85519
-1.46552
-2.80402
-6.15762
-9.10208
-12.093
-15.666
-19.589
-23.8228
-28.8784
-34.6604
-40.8344
-47.3629
-54.2397
-61.4399
-69.0935
-77.3947
-86.4376
-96.2544
-106.776
-117.933
-129.992
-143.207
-157.64
-173.261
-190.226
-208.712
-228.845
-250.806
-274.709
-300.577
-328.636
-359.04
-391.827
-427.129
-464.969
-505.387
-548.484
-594.264
-642.717
-693.915
-748.287
-805.271
-861.735
-908.153
-924.213
3.83701
-4.85219
2.63501
-7.34558
-3.92029
-10.7426
-11.7428
-16.2313
-19.9411
-23.9937
-28.6377
-33.2374
-38.1201
-43.7401
-49.8444
-56.6183
-64.2968
-72.6913
-81.5268
-90.6834
-100.257
-110.471
-121.493
-133.43
-146.218
-159.729
-174.049
-189.492
-206.104
-224.035
-243.357
-264.177
-286.552
-310.618
-336.561
-364.395
-394.164
-425.984
-459.824
-495.733
-533.812
-574.042
-616.355
-660.697
-706.955
-755.637
-805.384
-853.46
-891.572
-907.201
-1.51198
-12.3758
-5.3353
-16.4002
-11.1844
-19.713
-19.3884
-25.2839
-29.0644
-34.2614
-40.1309
-45.9774
-52.3976
-59.1665
-66.0295
-73.4785
-81.7333
-90.8204
-100.841
-111.684
-123.021
-134.695
-146.909
-159.862
-173.654
-188.31
-203.85
-220.301
-237.789
-256.355
-276.071
-297.143
-319.71
-343.75
-369.219
-396.3
-425.018
-455.341
-487.348
-520.996
-556.235
-593.04
-631.294
-670.81
-711.768
-753.683
-794.506
-830.468
-854.369
-868.147
-10.6489
-20.0724
-11.1741
-24.7537
-17.6332
-28.8234
-26.9822
-34.7641
-37.9887
-44.0806
-50.3909
-57.0637
-64.8268
-72.9556
-81.3984
-90.3784
-99.7036
-109.436
-119.963
-131.579
-144.281
-157.648
-171.378
-185.682
-200.7
-216.43
-232.816
-249.869
-267.884
-286.889
-306.931
-328.03
-350.205
-373.641
-398.465
-424.561
-451.905
-480.533
-510.327
-541.256
-573.332
-606.426
-640.291
-674.62
-709.844
-744.122
-775.068
-798.162
-807.712
-816.561
-19.3649
-27.1977
-18.3225
-32.8069
-23.9988
-37.5667
-34.4408
-44.3321
-46.7588
-53.934
-60.2202
-67.3969
-75.8178
-84.7566
-94.5829
-105.196
-116.228
-127.642
-139.494
-151.846
-165.061
-179.506
-194.701
-210.187
-226.148
-242.767
-260.118
-278.022
-296.502
-315.599
-335.511
-356.347
-378.206
-400.988
-424.678
-449.427
-475.211
-501.861
-529.348
-557.599
-586.473
-615.782
-645.184
-674.73
-703.514
-730.21
-752.533
-767.283
-773.858
-777.348
-26.5241
-33.0145
-24.5749
-38.9964
-30.0161
-45.0712
-40.5919
-52.7114
-54.0136
-63.1237
-69.1697
-77.2149
-86.0464
-95.3949
-105.985
-117.563
-129.928
-143.142
-156.987
-171.083
-185.321
-200.315
-216.622
-233.66
-250.908
-268.378
-286.197
-304.525
-323.413
-342.673
-362.446
-382.767
-403.748
-425.543
-448.214
-471.617
-495.66
-520.386
-545.624
-571.17
-596.957
-622.811
-648.546
-673.597
-697.15
-717.787
-732.984
-740.984
-749.073
-750.796
-31.8162
-37.2476
-29.823
-43.5913
-34.863
-50.61
-45
-59.1626
-59.1407
-70.6226
-76.152
-85.7418
-95.0731
-105.008
-116.261
-128.396
-141.575
-156.002
-171.43
-187.612
-204.114
-220.47
-237.286
-255.172
-273.7
-292.452
-311.264
-330.092
-349.028
-368.16
-387.539
-407.26
-427.512
-448.278
-469.558
-491.481
-514.039
-536.915
-559.994
-583.275
-606.609
-629.658
-652.006
-673.32
-692.585
-708.366
-718.631
-723.188
-726.69
-729.575
-35.5703
-39.7644
-33.955
-46.3406
-38.2898
-54.2871
-48.0461
-63.7449
-62.3106
-75.9255
-80.5134
-91.9864
-101.581
-112.741
-124.995
-137.784
-151.587
-166.702
-183.013
-200.54
-219.233
-238.292
-257.002
-275.889
-295.36
-315.114
-334.881
-354.473
-373.777
-392.877
-411.873
-430.852
-450
-469.485
-489.512
-510.035
-530.882
-552.133
-573.654
-595.141
-616.393
-637.034
-656.515
-674.57
-690.32
-701.776
-707.534
-713.014
-713.48
-715.974
-37.3479
-40.6116
-36.9263
-47.0347
-41.0846
-55.6049
-50.1067
-66.2221
-63.9711
-79.0867
-82.6327
-95.7056
-104.935
-117.555
-130.818
-144.752
-159.848
-175.888
-192.872
-211.197
-231.031
-252.104
-273.434
-294.516
-315.6
-336.698
-357.577
-378.037
-397.881
-417.034
-435.557
-453.679
-471.714
-489.913
-508.361
-527.31
-546.953
-566.935
-586.995
-607.264
-627.225
-645.787
-662.885
-678.117
-689.795
-696.524
-700.851
-703.208
-704.687
-705.944
-37.3456
-40.1619
-38.3514
-46.0471
-42.896
-54.6889
-51.3289
-66.0098
-64.5697
-79.9166
-82.8643
-97.2603
-105.726
-119.58
-132.996
-148.006
-164.73
-182.265
-200.535
-219.897
-240.628
-263.06
-286.606
-310.206
-333.597
-356.733
-379.345
-401.109
-421.805
-441.427
-459.823
-477.235
-493.946
-510.334
-527.004
-544.282
-562.173
-580.853
-600.317
-619.883
-638.524
-655.71
-670.707
-682.512
-689.951
-693.009
-695.562
-696.989
-698.885
-699.644
-36.2722
-38.5272
-38.3167
-43.8448
-43.0693
-52.1684
-51.6723
-63.2776
-64.2856
-77.8956
-81.5662
-96.1544
-104.188
-119.041
-132.297
-148.101
-165.694
-184.634
-204.861
-226.13
-248.093
-271.413
-296.815
-323.101
-349.161
-374.814
-399.797
-423.715
-446.05
-466.507
-484.957
-501.6
-516.881
-531.519
-545.913
-560.775
-576.885
-594.396
-612.962
-631.953
-650.248
-666.393
-679.165
-687.1
-689.931
-691.895
-692.226
-693.733
-695.465
-696.204
-33.8234
-36.0289
-37.5812
-40.7077
-42.1755
-48.5382
-50.3197
-58.9884
-62.6826
-73.3239
-79.2521
-92.6113
-100.759
-116.004
-128.991
-145.525
-163.281
-182.898
-204.655
-228.184
-252.659
-277.558
-304.065
-332.677
-361.919
-390.75
-418.809
-445.534
-470.305
-492.5
-511.86
-528.414
-542.538
-554.664
-566.051
-577.835
-590.96
-606.164
-623.839
-643.018
-661.652
-677.782
-688.451
-691.897
-692.907
-692.297
-692.202
-692.783
-693.732
-694.478
-30.8406
-32.6082
-35.201
-37.2239
-40.1289
-44.2307
-47.6735
-54.3379
-58.9185
-67.8788
-74.8661
-86.5427
-95.9706
-110.572
-123.464
-140.583
-158.202
-178.228
-200.777
-225.516
-252.518
-280.71
-309.376
-339.69
-371.625
-404.079
-435.971
-466.435
-494.62
-519.672
-540.917
-557.879
-571.003
-581.02
-588.757
-595.998
-604.712
-616.513
-632.403
-651.048
-671.134
-687.725
-697.086
-698.872
-697.815
-696.009
-694.098
-692.517
-691.708
-691.76
-27.6092
-28.762
-32.4012
-33.1049
-37.3627
-39.6999
-44.2049
-49.0768
-54.388
-61.9022
-68.9702
-79.4062
-89.3551
-103.013
-115.958
-133.131
-150.676
-170.947
-193.812
-219.078
-247.281
-278.249
-310.556
-343.849
-378.731
-414.81
-450.941
-485.973
-518.723
-547.895
-572.277
-591.347
-604.47
-612.192
-615.658
-616.985
-618.644
-624.256
-635.681
-653.738
-675.236
-692.709
-701.141
-705.063
-702.116
-698.571
-694.247
-690.371
-687.913
-687.005
-24.1793
-25.191
-29.5566
-28.9055
-34.2918
-34.6548
-40.3075
-43.2041
-49.2566
-55.2223
-62.4827
-71.5614
-81.4118
-93.8912
-106.946
-123.588
-140.965
-161.459
-184.458
-210.051
-238.83
-271.295
-306.487
-343.418
-382.267
-422.474
-463.37
-503.767
-542.165
-576.848
-606.238
-628.654
-643.012
-649.65
-649.36
-643.684
-635.722
-630.588
-634.147
-648.45
-670.191
-688.949
-700.15
-702.653
-701.969
-697.93
-692.643
-687.121
-682.973
-680.633
-21.0929
-20.6881
-26.3177
-24.7136
-30.7908
-30.0197
-36.0714
-37.6926
-43.7268
-48.5205
-55.5059
-63.4223
-72.6209
-84.0219
-96.7312
-112.273
-129.333
-149.498
-172.272
-198.279
-227.317
-260.456
-297.908
-338.384
-381.351
-426.394
-472.761
-519.36
-564.51
-606.288
-642.34
-670.334
-688.388
-695.732
-692.578
-679.876
-659.755
-638.292
-627.254
-632.651
-651.922
-673.729
-691.978
-699.758
-703.352
-702.522
-697.801
-690.578
-684.372
-680.43
-18.7351
-17.171
-22.8162
-21.5284
-26.6123
-26.4132
-31.2726
-33.0519
-37.977
-42.3079
-48.464
-55.5969
-63.7646
-74.2251
-85.6779
-100.307
-116.697
-136.17
-158.248
-184.22
-213.627
-246.57
-284.868
-328.23
-375.253
-425.547
-478.101
-531.846
-584.967
-635.233
-680.102
-716.233
-740.183
-750.223
-746.554
-728.766
-696.304
-653.244
-619.812
-609.566
-620.66
-648.272
-678.633
-701.883
-714.779
-717.178
-712.216
-703.11
-694.379
-688.804
-17.7642
-15.7648
-19.3002
-19.4939
-22.0607
-23.803
-26.173
-29.1179
-32.106
-36.4431
-41.6564
-48.0166
-55.379
-64.6664
-75.0575
-88.3655
-103.434
-121.894
-143.04
-168.24
-197.883
-231.274
-269.553
-314.157
-364.342
-419.557
-478.824
-540.499
-602.689
-663.395
-719.341
-766.25
-799.55
-815.916
-813.521
-792.595
-757.291
-691.965
-621.527
-588.533
-592.484
-624.272
-663.488
-702.393
-726.258
-733.679
-730.201
-719.091
-708.249
-703.345
-20.0194
-18.6034
-15.4329
-18.2714
-18.2292
-21.4335
-22.2021
-25.5611
-27.5012
-31.1094
-35.7092
-41.0496
-47.7698
-56.083
-65.4776
-77.404
-91.2788
-108.158
-128.007
-152.218
-181.243
-215.12
-253.625
-298.556
-350.632
-409.789
-475.693
-545.668
-618.036
-690.999
-759.473
-818.845
-865.627
-892.877
-894.136
-869.547
-821.561
-747.532
-656.986
-587.366
-568.894
-599.634
-652.085
-699.077
-726.024
-734.597
-732.384
-723.184
-715.355
-712.52
-14.8222
-13.7532
-12.3953
-16.5723
-14.3461
-18.2322
-18.0777
-21.7631
-23.4296
-26.2722
-30.9303
-35.6909
-41.7982
-48.9909
-57.507
-68.4074
-81.6512
-97.4133
-115.854
-138.691
-167.046
-201.073
-240.366
-285.943
-340.015
-403.579
-475.722
-555.93
-642.033
-729.67
-814.739
-891.498
-954.175
-996.86
-1011.77
-991.826
-937.857
-833.731
-729.474
-658.037
-635.628
-649.334
-676.436
-705.354
-719.931
-722.068
-717.35
-712.391
-711.494
-712.909
-11.7116
-10.3939
-11.7046
-13.5485
-13.9424
-15.6597
-17.217
-19.4664
-22.0912
-25.002
-28.5137
-32.5088
-38.0057
-44.4688
-52.6209
-62.9927
-76.1356
-92.1124
-110.803
-134.377
-163.912
-199.775
-242.542
-292.85
-352.589
-424.042
-507.633
-602.117
-704.051
-810.425
-914.328
-1006.29
-1079.4
-1128.3
-1136.38
-1098.65
-1013.38
-918.899
-834.021
-780.968
-754.955
-743.164
-740.517
-737.224
-728.996
-717.731
-708.081
-705.236
-707.846
-710.969
-9.32927
-9.6114
-10.5502
-11.6726
-12.9792
-14.39
-16.1347
-17.9151
-20.272
-23.0052
-26.1377
-29.9633
-35.3926
-41.9742
-50.5352
-61.0752
-74.7617
-91.6769
-111.689
-137.038
-169.726
-210.067
-258.256
-316.097
-385.695
-469.613
-568.357
-679.962
-803.375
-931.71
-1050.93
-1153.37
-1233.15
-1273.94
-1260.32
-1207.65
-1136.68
-1057.92
-993.659
-939.09
-897.233
-859.323
-825.669
-792.225
-759.373
-731.259
-712.981
-707.143
-710.772
-713.948
-7.33951
-8.28013
-8.99055
-9.78611
-10.8643
-12.101
-13.6122
-15.2198
-17.3185
-19.7022
-22.7893
-26.6875
-31.9642
-38.5848
-47.4251
-58.4733
-72.9761
-91.1839
-113.465
-141.59
-178.176
-224.156
-279.779
-347.487
-429.405
-528.438
-647.61
-784.644
-933.449
-1080.33
-1214.57
-1328.54
-1406.91
-1430.44
-1418.11
-1373.73
-1313.07
-1245.24
-1177.15
-1110.19
-1044.49
-982.286
-921.969
-864.825
-812.079
-766.379
-734.047
-718.213
-718.355
-723.2
-5.36825
-6.05207
-6.71692
-7.22185
-7.81525
-8.66665
-9.65975
-10.9549
-12.7519
-14.9149
-17.7016
-21.4244
-26.514
-33.1328
-41.8042
-52.9101
-67.948
-87.0856
-110.82
-141.694
-183.385
-236.724
-301.278
-379.239
-475.651
-596.536
-743.36
-909.339
-1081.79
-1248.85
-1400.99
-1521.93
-1596.18
-1627.24
-1618.5
-1580.24
-1519.02
-1445.57
-1361.18
-1273.99
-1184.49
-1097.79
-1015.63
-939.572
-871.764
-813.959
-768.659
-739.825
-729.365
-738.873
-3.06157
-3.37781
-3.70963
-3.93844
-4.11187
-4.5016
-4.85495
-5.45539
-6.48995
-8.15777
-10.466
-13.5878
-17.9282
-24.0041
-32.2413
-43.0531
-58.1348
-78.2287
-103.457
-136.458
-182.392
-242.717
-317.165
-408.834
-525.705
-674.449
-851.957
-1046.03
-1242.85
-1433.73
-1600.45
-1728.01
-1811.1
-1848.25
-1838.32
-1793.97
-1723.54
-1631.92
-1527.46
-1415.72
-1303.6
-1195.77
-1095.01
-1004.48
-925.654
-859.473
-806.261
-767.834
-749.974
-758.668
-0.369065
-0.320517
-0.0815928
0.239101
0.547936
0.760312
0.928591
1.0095
0.931791
0.42352
-0.801704
-2.93549
-6.28408
-11.2369
-18.2829
-27.9865
-42.182
-62.3492
-88.6078
-123.495
-173.509
-241.676
-328.609
-438.905
-581.3
-760.364
-969.265
-1191.11
-1413.39
-1622.65
-1804.28
-1944.35
-2032.89
-2063.5
-2044.7
-1986.92
-1895.96
-1780.49
-1651.99
-1518.73
-1386.62
-1261.94
-1147.94
-1046.78
-960.592
-889.784
-834.029
-793.721
-772.336
-769.474
2.8748
3.30394