/*--------------------------------*- C++ -*----------------------------------*\
| =========                 |                                                 |
| \\      /  F ield         | OpenFOAM: The Open Source CFD Toolbox           |
|  \\    /   O peration     | Version:  v1912                                 |
|   \\  /    A nd           | Website:  www.openfoam.com                      |
|    \\/     M anipulation  |                                                 |
\*---------------------------------------------------------------------------*/
FoamFile
{
    version     2.0;
    format      ascii;
    class       surfaceScalarField;
    location    "0.05";
    object      phi;
}
// * * * * * * * * * * * * * * * * * * * * * * * * * * * * * * * * * * * * * //

dimensions      [0 3 -1 0 0 0 0];
oriented        oriented;


internalField   nonuniform List<scalar> 
13060
(
0.00574866
0.988453
-0.994202
0.00759399
0.945486
-0.947332
0.0089204
0.899309
-0.900635
0.0102002
0.856038
-0.857318
0.011568
0.814619
-0.815987
0.0126567
0.775629
-0.776718
0.0134328
0.738596
-0.739372
0.0140017
0.703407
-0.703976
0.0143528
0.670036
-0.670387
0.0147677
0.637936
-0.638351
0.0151801
0.607439
-0.607851
0.0156936
0.578252
-0.578766
0.0162832
0.550298
-0.550887
0.0168149
0.523535
-0.524067
0.0172533
0.498013
-0.498451
0.0176545
0.473718
-0.474119
0.0180069
0.450583
-0.450936
0.0182641
0.428516
-0.428773
0.0184098
0.40744
-0.407586
0.0184939
0.387358
-0.387442
0.018513
0.368369
-0.368388
0.0183573
0.350447
-0.350292
0.0180285
0.333362
-0.333033
0.0175724
0.317132
-0.316676
0.0170106
0.301728
-0.301166
0.0162983
0.287112
-0.2864
0.0155167
0.273088
-0.272306
0.0147353
0.259726
-0.258945
0.0140908
0.247028
-0.246384
0.0134737
0.235108
-0.234491
0.0128109
0.223817
-0.223155
0.0120419
0.213033
-0.212264
0.0113317
0.202785
-0.202075
0.0106182
0.193299
-0.192585
0.00980306
0.184319
-0.183504
0.00894144
0.175802
-0.17494
0.00803035
0.167848
-0.166937
0.00703414
0.160336
-0.15934
0.00602255
0.153107
-0.152096
0.00503382
0.146403
-0.145414
0.0040288
0.140256
-0.139251
0.00304761
0.134358
-0.133377
0.0020844
0.128787
-0.127824
0.00118175
0.123625
-0.122723
0.000299694
0.118637
-0.117755
-0.000558035
0.114127
-0.11327
-0.00143971
0.109455
-0.108573
-0.00216454
0.1059
-0.105175
-0.00198131
0.0973506
-0.0975338
0.0679784
-0.0699597
0.00614914
0.982304
0.00778699
0.943848
0.00860231
0.898494
0.00922697
0.855414
0.0100027
0.813843
0.0102788
0.775353
0.0106484
0.738226
0.0108678
0.703188
0.0110595
0.669844
0.0113115
0.637684
0.0114652
0.607285
0.0117927
0.577925
0.0121641
0.549926
0.0124868
0.523212
0.0127394
0.49776
0.0129383
0.473519
0.0130543
0.450467
0.0130452
0.428525
0.012863
0.407622
0.0125205
0.387701
0.0121413
0.368748
0.0117583
0.35083
0.0113494
0.333771
0.0109682
0.317513
0.0106865
0.30201
0.0104598
0.287339
0.0102056
0.273342
0.00979737
0.260134
0.00918281
0.247643
0.00846525
0.235825
0.0077559
0.224527
0.00700075
0.213788
0.00619832
0.203588
0.00540787
0.194089
0.00465714
0.18507
0.00387652
0.176583
0.00310689
0.168618
0.00234367
0.161099
0.00154809
0.153903
0.000789276
0.147162
8.99442e-05
0.140955
-0.000632569
0.135081
-0.00132501
0.12948
-0.00195443
0.124255
-0.0025139
0.119196
-0.00294411
0.114558
-0.00337651
0.109887
-0.00331108
0.105834
-0.00249947
0.096539
0.0654789
0.0056763
0.976628
0.00702537
0.942499
0.00749181
0.898027
0.00794887
0.854957
0.00789393
0.813898
0.00771698
0.77553
0.00783924
0.738104
0.0077874
0.703239
0.00794309
0.669689
0.00796629
0.63766
0.00805236
0.607199
0.00831682
0.577661
0.00862604
0.549617
0.00892144
0.522917
0.00913155
0.49755
0.00921606
0.473435
0.00918351
0.4505
0.00905926
0.42865
0.00885743
0.407824
0.00854891
0.388009
0.00811839
0.369179
0.00763703
0.351312
0.00707149
0.334336
0.00638442
0.3182
0.00557086
0.302823
0.00471143
0.288198
0.00386795
0.274185
0.00323991
0.260763
0.00278948
0.248093
0.00235927
0.236256
0.00181999
0.225066
0.00123228
0.214376
0.000661668
0.204158
9.41106e-05
0.194657
-0.000551707
0.185716
-0.00118389
0.177215
-0.00179883
0.169233
-0.00240479
0.161705
-0.00297796
0.154476
-0.00353456
0.147718
-0.00406034
0.141481
-0.00450984
0.13553
-0.00487559
0.129845
-0.00512453
0.124504
-0.00529135
0.119363
-0.00534571
0.114612
-0.00530855
0.10985
-0.00462804
0.105154
-0.00315656
0.0950675
0.0623224
0.00421506
0.972413
0.00487951
0.941835
0.00499485
0.897912
0.00518712
0.854764
0.00518845
0.813897
0.00539711
0.775322
0.00513848
0.738363
0.00471542
0.703663
0.00466867
0.669736
0.00452491
0.637804
0.00467307
0.607051
0.00481459
0.577519
0.00483808
0.549594
0.00479283
0.522962
0.00465823
0.497685
0.00440468
0.473688
0.0040287
0.450876
0.0035512
0.429127
0.00295673
0.408418
0.00233491
0.388631
0.00172174
0.369792
0.00114812
0.351885
0.000629984
0.334854
0.000237532
0.318592
-6.44034e-06
0.303067
-0.000243285
0.288435
-0.000647644
0.27459
-0.00129605
0.261411
-0.00201537
0.248813
-0.00266538
0.236906
-0.00325693
0.225658
-0.00386232
0.214982
-0.00449193
0.204788
-0.00508515
0.19525
-0.00563058
0.186261
-0.00618362
0.177768
-0.0066976
0.169747
-0.00715101
0.162159
-0.00754899
0.154874
-0.00784369
0.148013
-0.00804675
0.141684
-0.00816789
0.135651
-0.00819044
0.129868
-0.0080986
0.124412
-0.00785586
0.119121
-0.00743384
0.11419
-0.0069381
0.109354
-0.00585244
0.104068
-0.00379832
0.0930134
0.0585241
0.002874
0.969539
0.00312349
0.941585
0.00296737
0.898068
0.00301722
0.854714
0.00266083
0.814253
0.00231701
0.775665
0.0017656
0.738914
0.00153758
0.703891
0.00153421
0.669739
0.00155913
0.637779
0.00189921
0.606711
0.00194316
0.577475
0.00181422
0.549723
0.00152116
0.523255
0.00110245
0.498103
0.000598336
0.474192
8.1588e-05
0.451393
-0.000425224
0.429634
-0.000948016
0.408941
-0.00156233
0.389245
-0.0022359
0.370466
-0.00293623
0.352586
-0.00370195
0.33562
-0.00462102
0.319511
-0.00566139
0.304108
-0.00658764
0.289361
-0.00730962
0.275312
-0.00782978
0.261931
-0.00827209
0.249255
-0.00870851
0.237342
-0.00917689
0.226126
-0.00961582
0.21542
-0.0100394
0.205212
-0.0104723
0.195683
-0.0108795
0.186668
-0.0111846
0.178073
-0.0114388
0.170001
-0.0116442
0.162364
-0.0117909
0.155021
-0.0118708
0.148093
-0.0118348
0.141648
-0.0116841
0.135501
-0.0114082
0.129592
-0.010975
0.123979
-0.0104099
0.118555
-0.00966367
0.113444
-0.00880901
0.1085
-0.00729563
0.102555
-0.00455566
0.0902734
0.0539684
0.00325827
0.966281
0.00380038
0.941043
0.00325089
0.898617
0.00248796
0.855477
0.00121151
0.81553
0.00010042
0.776777
-0.000556416
0.739571
-0.00066639
0.704001
-0.000813492
0.669886
-0.000947283
0.637913
-0.00118822
0.606952
-0.00170718
0.577994
-0.00226043
0.550276
-0.00294391
0.523939
-0.00374098
0.4989
-0.00461954
0.475071
-0.00557603
0.452349
-0.0065546
0.430612
-0.00744047
0.409827
-0.00823557
0.39004
-0.00896552
0.371196
-0.00960254
0.353223
-0.0100781
0.336096
-0.0103756
0.319809
-0.0106058
0.304338
-0.0109229
0.289678
-0.0114778
0.275866
-0.0121825
0.262636
-0.0128697
0.249942
-0.0134498
0.237922
-0.0139744
0.226651
-0.0144867
0.215933
-0.0149242
0.205649
-0.0152373
0.195996
-0.0155201
0.186951
-0.0157902
0.178343
-0.0159552
0.170166
-0.0160072
0.162416
-0.0159483
0.154962
-0.0157541
0.147899
-0.0154372
0.141331
-0.01499
0.135053
-0.014411
0.129013
-0.0136971
0.123265
-0.0128378
0.117696
-0.0117917
0.112398
-0.0105858
0.107294
-0.00865366
0.100622
-0.00522809
0.0868478
0.0487403
0.0099927
0.956288
0.0079595
0.943077
0.00626915
0.900308
0.00343499
0.858312
0.00123439
0.817731
-5.95482e-05
0.77807
-0.000780871
0.740292
-0.00127473
0.704494
-0.0018501
0.670461
-0.00262591
0.638689
-0.003601
0.607927
-0.00474219
0.579135
-0.00573857
0.551272
-0.00678153
0.524982
-0.0077589
0.499878
-0.0086251
0.475937
-0.0094012
0.453125
-0.0101768
0.431388
-0.0110001
0.41065
-0.0118417
0.390882
-0.0127072
0.372061
-0.0135924
0.354108
-0.014532
0.337035
-0.0155485
0.320825
-0.0165992
0.305389
-0.0174678
0.290547
-0.0180484
0.276447
-0.0184739
0.263061
-0.018868
0.250336
-0.0192276
0.238282
-0.0195532
0.226976
-0.0198197
0.216199
-0.0200737
0.205903
-0.0202929
0.196215
-0.0203912
0.187049
-0.0203554
0.178307
-0.0202451
0.170056
-0.0200377
0.162209
-0.0197413
0.154665
-0.0193588
0.147516
-0.0188352
0.140808
-0.0181661
0.134384
-0.0173518
0.128199
-0.0163771
0.12229
-0.0153027
0.116622
-0.0141741
0.111269
-0.0125788
0.105698
-0.0101716
0.0982153
-0.00597558
0.0826519
0.0427647
0.0218448
0.934443
0.010786
0.954135
0.00838397
0.90271
0.00422524
0.86247
0.00205792
0.819898
0.000229591
0.779899
-0.00135099
0.741873
-0.00260873
0.705752
-0.00426693
0.67212
-0.00572736
0.640149
-0.00737213
0.609571
-0.00880364
0.580567
-0.0102454
0.552714
-0.0116668
0.526403
-0.013003
0.501214
-0.0142725
0.477207
-0.0154357
0.454288
-0.0164874
0.43244
-0.0174305
0.411594
-0.0182855
0.391737
-0.0190613
0.372837
-0.0197351
0.354782
-0.0202177
0.337518
-0.0204957
0.321103
-0.0207061
0.305599
-0.0211015
0.290942
-0.0217034
0.277049
-0.0223668
0.263725
-0.0229745
0.250944
-0.0234524
0.23876
-0.0238563
0.22738
-0.0242182
0.216561
-0.0244496
0.206135
-0.0245161
0.196282
-0.0245237
0.187057
-0.024474
0.178257
-0.0242787
0.16986
-0.0239448
0.161875
-0.0234661
0.154187
-0.0228336
0.146884
-0.0220779
0.140052
-0.0211904
0.133497
-0.0201706
0.127179
-0.0190195
0.121139
-0.0177219
0.115324
-0.0163822
0.109929
-0.014416
0.103732
-0.0115654
0.0953646
-0.00661602
0.0777025
0.0361487
0.0224137
0.912029
0.00790387
0.968645
0.00716392
0.90345
0.00296362
0.866671
0.00184162
0.82102
-0.000148133
0.781889
-0.00249275
0.744217
-0.00473301
0.707992
-0.00720278
0.674589
-0.00920489
0.642151
-0.0110601
0.611427
-0.0125448
0.582051
-0.014046
0.554215
-0.015328
0.527685
-0.0164972
0.502383
-0.0175786
0.478288
-0.018573
0.455283
-0.0195188
0.433386
-0.0204668
0.412542
-0.0213916
0.392662
-0.0222922
0.373738
-0.0232697
0.355759
-0.0243537
0.338602
-0.0254978
0.322248
-0.0265743
0.306676
-0.0273987
0.291767
-0.0278775
0.277528
-0.0282222
0.264069
-0.028544
0.251266
-0.0288141
0.23903
-0.0289537
0.22752
-0.0289903
0.216598
-0.0290224
0.206167
-0.0290201
0.19628
-0.0288437
0.186881
-0.0285042
0.177918
-0.0280738
0.16943
-0.0275189
0.16132
-0.0268599
0.153528
-0.0261085
0.146133
-0.0252121
0.139155
-0.0241725
0.132457
-0.0230048
0.126011
-0.0217146
0.119849
-0.0203301
0.11394
-0.0187487
0.108348
-0.0165559
0.101539
-0.0131822
0.091991
-0.00732166
0.0718419
0.0288271
0.0106372
0.901392
0.00268663
0.976596
0.00436774
0.901769
-0.000177492
0.871216
-0.00130714
0.822149
-0.00385147
0.784433
-0.00594366
0.74631
-0.0085437
0.710592
-0.0111845
0.67723
-0.0134613
0.644428
-0.0154976
0.613463
-0.0172806
0.583834
-0.0188724
0.555807
-0.0202669
0.52908
-0.0215721
0.503688
-0.0228159
0.479532
-0.0239988
0.456466
-0.0250855
0.434472
-0.0261121
0.413568
-0.0270759
0.393626
-0.0278979
0.37456
-0.0285411
0.356402
-0.0290171
0.339078
-0.0293249
0.322555
-0.0296188
0.30697
-0.030096
0.292244
-0.0307403
0.278172
-0.0313502
0.264679
-0.0318734
0.251789
-0.0322845
0.239441
-0.0326193
0.227854
-0.0328528
0.216831
-0.0328759
0.20619
-0.0327023
0.196106
-0.0324757
0.186654
-0.0321649
0.177607
-0.0316754
0.16894
-0.0310437
0.160688
-0.0302638
0.152748
-0.0293312
0.1452
-0.0282833
0.138108
-0.027114
0.131288
-0.0258202
0.124717
-0.0244135
0.118442
-0.0230185
0.112545
-0.0211162
0.106445
-0.0186238
0.0990471
-0.0146127
0.0879799
-0.00799346
0.0652227
0.0208336
-0.00250404
0.903896
-0.00306575
0.977157
-0.000133477
0.898836
-0.00554515
0.876627
-0.00668216
0.823287
-0.00966838
0.787419
-0.0110992
0.74774
-0.0130943
0.712588
-0.0147435
0.678879
-0.0164573
0.646142
-0.0182857
0.615291
-0.0200576
0.585606
-0.0215807
0.55733
-0.0229127
0.530412
-0.0240434
0.504819
-0.0250269
0.480515
-0.0259964
0.457435
-0.0269929
0.435469
-0.0280004
0.414576
-0.0290568
0.394682
-0.030175
0.375678
-0.0313287
0.357556
-0.0325587
0.340308
-0.0338126
0.323809
-0.0349006
0.308058
-0.0357087
0.293052
-0.0362302
0.278694
-0.0366101
0.265059
-0.0368876
0.252066
-0.0370674
0.239621
-0.0370459
0.227833
-0.0369123
0.216698
-0.0367973
0.206075
-0.0366379
0.195947
-0.036268
0.186284
-0.035727
0.177066
-0.0351022
0.168316
-0.0343351
0.159921
-0.0334525
0.151865
-0.0324794
0.144227
-0.0313674
0.136996
-0.0301256
0.130046
-0.0287805
0.123372
-0.0273487
0.11701
-0.0258366
0.111033
-0.0236514
0.10426
-0.0206981
0.0960938
-0.0157099
0.0829917
-0.00780161
0.0573144
0.013032
-0.0114882
0.915384
-0.0102736
0.975943
-0.00694931
0.895512
-0.0118143
0.881493
-0.0121617
0.823634
-0.0159035
0.791161
-0.0170686
0.748906
-0.0187219
0.714241
-0.0195161
0.679674
-0.0205086
0.647135
-0.0218161
0.616599
-0.0232817
0.587072
-0.0247452
0.558794
-0.0262648
0.531931
-0.0277338
0.506288
-0.0290943
0.481876
-0.0303346
0.458675
-0.0314783
0.436612
-0.0325381
0.415635
-0.0335389
0.395683
-0.0344813
0.37662
-0.0352795
0.358354
-0.0358812
0.340909
-0.0363562
0.324284
-0.0368229
0.308524
-0.0374214
0.29365
-0.0381185
0.279391
-0.0387672
0.265708
-0.039307
0.252606
-0.0397433
0.240057
-0.040081
0.228171
-0.0402837
0.2169
-0.0402175
0.206008
-0.0399225
0.195652
-0.0395664
0.185928
-0.0391104
0.17661
-0.0384538
0.167659
-0.0376685
0.159136
-0.0367507
0.150947
-0.0356887
0.143165
-0.0345111
0.135818
-0.033206
0.128741
-0.0317889
0.121955
-0.0304539
0.115675
-0.028652
0.109231
-0.0262748
0.101883
-0.0225461
0.0923651
-0.0160162
0.0764618
-0.00609181
0.04739
0.00694018
-0.0165056
0.93189
-0.0138617
0.973299
-0.0118276
0.893478
-0.0157827
0.885448
-0.0147662
0.822617
-0.0184974
0.794892
-0.0195408
0.749949
-0.0213696
0.71607
-0.0219432
0.680247
-0.0227519
0.647943
-0.02364
0.617487
-0.0245815
0.588013
-0.0256553
0.559867
-0.0267492
0.533025
-0.0278828
0.507422
-0.0291351
0.483128
-0.0304832
0.460024
-0.0318194
0.437949
-0.0330877
0.416904
-0.0343356
0.396931
-0.0356595
0.377944
-0.0370801
0.359775
-0.0385731
0.342402
-0.0400513
0.325762
-0.0413254
0.309798
-0.0422516
0.294577
-0.0428751
0.280014
-0.0433668
0.2662
-0.0437135
0.252953
-0.0439259
0.240269
-0.0439008
0.228145
-0.0437231
0.216723
-0.0435683
0.205854
-0.0433919
0.195475
-0.0429912
0.185527
-0.0424111
0.17603
-0.041751
0.166999
-0.0409347
0.158319
-0.0399933
0.150006
-0.0389611
0.142133
-0.0377958
0.134653
-0.0365155
0.127461
-0.0351931
0.120633
-0.0337331
0.114215
-0.0316217
0.107119
-0.0287843
0.0990455
-0.024014
0.0875948
-0.0156419
0.0680898
-0.00400105
0.0357492
0.00293913
-0.015666
0.947556
-0.0122454
0.969878
-0.0145672
0.8958
-0.0170119
0.887892
-0.0158348
0.82144
-0.019435
0.798492
-0.0200134
0.750527
-0.0223085
0.718365
-0.0232061
0.681145
-0.024354
0.649091
-0.0251976
0.618331
-0.0262236
0.589039
-0.0276315
0.561275
-0.0290307
0.534424
-0.03029
0.508681
-0.0315742
0.484412
-0.0329701
0.46142
-0.0344833
0.439462
-0.0359939
0.418414
-0.0373442
0.398281
-0.0385291
0.379129
-0.0395615
0.360807
-0.0404138
0.343255
-0.0411825
0.326531
-0.0419841
0.3106
-0.0428684
0.295461
-0.0437943
0.28094
-0.044655
0.26706
-0.0453451
0.253643
-0.0459097
0.240834
-0.0463983
0.228634
-0.0467363
0.217061
-0.0467703
0.205888
-0.0465144
0.195219
-0.0461815
0.185195
-0.0457461
0.175595
-0.0451007
0.166353
-0.0443336
0.157552
-0.0434452
0.149117
-0.042417
0.141104
-0.0412677
0.133503
-0.040001
0.126194
-0.0388166
0.119448
-0.037112
0.112511
-0.0347704
0.104778
-0.031097
0.0953721
-0.0250019
0.0814997
-0.0154147
0.0585026
-0.00256044
0.0228949
0.000378689
-0.0105619
0.958118
-0.00662654
0.965943
-0.013074
0.902247
-0.0143464
0.889165
-0.0140863
0.82118
-0.0172865
0.801692
-0.0178022
0.751043
-0.0206429
0.721205
-0.0218193
0.682321
-0.0232885
0.65056
-0.0239372
0.618979
-0.024746
0.589848
-0.0260261
0.562555
-0.0274559
0.535854
-0.0289436
0.510169
-0.0303538
0.485823
-0.0317193
0.462785
-0.0331842
0.440927
-0.0348519
0.420082
-0.0366564
0.400085
-0.038489
0.380962
-0.0403915
0.36271
-0.0423202
0.345183
-0.0441359
0.328347
-0.0457145
0.312179
-0.0469635
0.29671
-0.0479437
0.28192
-0.0486979
0.267815
-0.0493198
0.254265
-0.0497504
0.241265
-0.0498908
0.228774
-0.0498218
0.216992
-0.0497762
0.205842
-0.0497465
0.195189
-0.0494927
0.184941
-0.0490345
0.175137
-0.0484945
0.165813
-0.0478026
0.156861
-0.0469806
0.148295
-0.0460585
0.140182
-0.0449966
0.132441
-0.0440081
0.125206
-0.0427302
0.118171
-0.0408224
0.110603
-0.0381145
0.10207
-0.033688
0.0909455
-0.0256697
0.0734814
-0.0130386
0.0458715
-0.00160544
0.0114617
-0.00122676
-0.00746567
0.965584
-0.00503133
0.963508
-0.0119948
0.909211
-0.0114915
0.888661
-0.0123964
0.822085
-0.0149041
0.8042
-0.0153034
0.751442
-0.0184584
0.72436
-0.019995
0.683858
-0.0222642
0.65283
-0.0234699
0.620185
-0.0246562
0.591034
-0.025916
0.563815
-0.0275151
0.537453
-0.0294072
0.512061
-0.0312859
0.487701
-0.0330661
0.464565
-0.034766
0.442627
-0.0364076
0.421724
-0.0380597
0.401738
-0.0396688
0.382571
-0.041144
0.364185
-0.0425235
0.346563
-0.0438497
0.329673
-0.0452016
0.31353
-0.0466084
0.298117
-0.0480214
0.283333
-0.0492617
0.269055
-0.0502827
0.255286
-0.0511609
0.242143
-0.0519719
0.229585
-0.052637
0.217657
-0.052957
0.206162
-0.0529157
0.195148
-0.0527683
0.184793
-0.0525366
0.174905
-0.0520876
0.165364
-0.0515
0.156273
-0.0507986
0.147594
-0.0499726
0.139356
-0.0491457
0.131614
-0.0482414
0.124301
-0.046746
0.116675
-0.0447266
0.108584
-0.0414601
0.0988032
-0.0354542
0.0849396
-0.0249223
0.0629496
-0.00890852
0.0298577
-0.00122886
0.00378205
-0.00245561
-0.00416951
0.969753
-0.00289734
0.962236
-0.00897183
0.915285
-0.00738485
0.887074
-0.00971694
0.824417
-0.0113477
0.805831
-0.0117258
0.75182
-0.0146395
0.727274
-0.0159676
0.685186
-0.0187998
0.655662
-0.0202714
0.621657
-0.0217366
0.5925
-0.0227844
0.564863
-0.0241045
0.538773
-0.0260068
0.513963
-0.0280178
0.489712
-0.0299904
0.466538
-0.0320789
0.444715
-0.0342523
0.423897
-0.0364579
0.403943
-0.0387976
0.38491
-0.0412804
0.366668
-0.0437838
0.349066
-0.0461608
0.33205
-0.0482792
0.315649
-0.0500556
0.299893
-0.0515542
0.284832
-0.0528687
0.270369
-0.0540604
0.256478
-0.0549572
0.24304
-0.0554906
0.230119
-0.0557202
0.217887
-0.0559299
0.206372
-0.0561909
0.195409
-0.0562362
0.184839
-0.0560213
0.17469
-0.0557259
0.165069
-0.0553118
0.155859
-0.0547843
0.147067
-0.0541943
0.138766
-0.0536211
0.131041
-0.0525879
0.123268
-0.0510597
0.115147
-0.0486214
0.106145
-0.0439735
0.0941553
-0.0349601
0.0759263
-0.0200925
0.0480819
-0.00486688
0.0146321
-0.000417774
-0.000667065
-0.00287338
-0.00258528
0.972338
-0.00285526
0.962506
-0.00697807
0.919408
-0.00496103
0.885057
-0.00795582
0.827412
-0.00850409
0.806379
-0.00891045
0.752227
-0.0114044
0.729768
-0.0126298
0.686411
-0.0158649
0.658897
-0.0180187
0.62381
-0.0204927
0.594974
-0.0219197
0.56629
-0.0233612
0.540215
-0.0252758
0.515878
-0.027506
0.491942
-0.0297418
0.468774
-0.0319238
0.446897
-0.0341714
0.426145
-0.036389
0.406161
-0.0384492
0.386971
-0.0404182
0.368637
-0.042437
0.351085
-0.0445376
0.334151
-0.0467051
0.317816
-0.048928
0.302116
-0.0510387
0.286943
-0.0528749
0.272206
-0.0544828
0.258085
-0.0559055
0.244462
-0.0572375
0.231451
-0.0584143
0.219063
-0.0592102
0.207168
-0.0595266
0.195726
-0.0596745
0.184987
-0.0597888
0.174804
-0.0596902
0.16497
-0.0594318
0.1556
-0.0590713
0.146706
-0.0587287
0.138424
-0.0581294
0.130442
-0.057002
0.122141
-0.0551516
0.113297
-0.0515362
0.10253
-0.0444574
0.0870765
-0.0318694
0.0633383
-0.0129816
0.0291941
-0.00253069
0.00418118
9.45391e-07
-0.0031987
-0.00287244
-0.000398061
0.972737
-0.000695834
0.962804
-0.00418676
0.922899
-0.00210847
0.882979
-0.00524943
0.830553
-0.00504911
0.806179
-0.00596786
0.753146
-0.00753298
0.731333
-0.00807781
0.686956
-0.0109467
0.661766
-0.012959
0.625823
-0.0158347
0.597849
-0.0176617
0.568117
-0.0193022
0.541855
-0.0209939
0.517569
-0.0230757
0.494024
-0.0255181
0.471216
-0.0280741
0.449453
-0.0307757
0.428846
-0.0337515
0.409136
-0.0369335
0.390153
-0.0401512
0.371854
-0.0432448
0.354179
-0.0462436
0.337149
-0.0490743
0.320647
-0.0516188
0.30466
-0.0539864
0.28931
-0.0562347
0.274454
-0.0582301
0.260081
-0.0598797
0.246112
-0.0610651
0.232636
-0.0617873
0.219786
-0.0623645
0.207745
-0.0630196
0.196381
-0.063462
0.185429
-0.0635582
0.1749
-0.0635715
0.164984
-0.0635253
0.155554
-0.0634747
0.146655
-0.0633311
0.13828
-0.0626327
0.129744
-0.0613473
0.120855
-0.058759
0.110708
-0.0531572
0.0969281
-0.0419596
0.0758788
-0.0234055
0.0447842
-0.0064614
0.0122501
-0.000970153
-0.00131007
0.000207714
-0.00437657
-0.00266472
0.000419023
0.972317
-0.000240943
0.963464
-0.0025556
0.925214
-0.000540566
0.880964
-0.00343782
0.83345
-0.00263184
0.805373
-0.00398992
0.754504
-0.00502838
0.732372
-0.00564107
0.687569
-0.00797622
0.664101
-0.00973458
0.627581
-0.0130919
0.601207
-0.0154992
0.570524
-0.0179404
0.544296
-0.0198436
0.519473
-0.0219276
0.496108
-0.0244128
0.473701
-0.0268905
0.451931
-0.0293733
0.431329
-0.0320053
0.411768
-0.0347031
0.39285
-0.0375412
0.374692
-0.0405706
0.357208
-0.0435856
0.340164
-0.0466769
0.323738
-0.0498474
0.307831
-0.0528517
0.292315
-0.0556274
0.27723
-0.0581606
0.262614
-0.0604271
0.248378
-0.0625061
0.234715
-0.0644235
0.221703
-0.0658934
0.209215
-0.0666619
0.197149
-0.0671084
0.185875
-0.0675513
0.175343
-0.0678274
0.16526
-0.0679954
0.155722
-0.0680755
0.146735
-0.0677425
0.137947
-0.0669455
0.128947
-0.0652106
0.11912
-0.0609047
0.106402
-0.0514093
0.0874327
-0.0346014
0.0590709
-0.0134121
0.023595
-0.00317426
0.00201218
-0.000237032
-0.0042473
0.000243489
-0.00485709
-0.00242123
0.00165099
0.970666
0.00124225
0.963873
-0.000596548
0.927053
0.00114547
0.879222
-0.00126449
0.83586
0.000307636
0.803801
-0.00156978
0.756381
-0.00163183
0.732434
-0.00237813
0.688315
-0.00382819
0.665551
-0.00518652
0.628939
-0.00787614
0.603896
-0.0102031
0.572851
-0.0128797
0.546973
-0.0148076
0.521401
-0.0169545
0.498255
-0.0196778
0.476425
-0.0226263
0.454879
-0.0256465
0.434349
-0.0290507
0.415173
-0.0328172
0.396617
-0.0365698
0.378445
-0.0403885
0.361027
-0.0443714
0.344147
-0.048175
0.327542
-0.0517753
0.311431
-0.0552877
0.295827
-0.0586278
0.28057
-0.0616935
0.26568
-0.0644527
0.251138
-0.0666465
0.236909
-0.0681301
0.223187
-0.0692414
0.210326
-0.0703718
0.19828
-0.0712379
0.186742
-0.0716345
0.17574
-0.0719121
0.165537
-0.0721652
0.155975
-0.072265
0.146835
-0.0719979
0.13768
-0.0708949
0.127843
-0.0676533
0.115879
-0.0600159
0.0987651
-0.0454684
0.0728852
-0.0224165
0.036019
-0.00631694
0.00749541
-0.00133279
-0.00297197
2.54191e-05
-0.00560551
0.000201932
-0.0050336
-0.0022193
0.00208106
0.968585
0.00178866
0.964165
0.000739218
0.928102
0.0019241
0.878037
-0.000437396
0.838222
0.00110998
0.802253
-0.000747093
0.758238
-0.000157923
0.731844
-0.00130219
0.689459
-0.00199992
0.666249
-0.0030616
0.630001
-0.00564498
0.60648
-0.00802668
0.575233
-0.0112402
0.550187
-0.0134037
0.523564
-0.0154478
0.500299
-0.0178167
0.478794
-0.0205891
0.457652
-0.0233604
0.437121
-0.0261241
0.417936
-0.0293127
0.399805
-0.032984
0.382116
-0.0367754
0.364818
-0.0406725
0.348044
-0.0448609
0.33173
-0.0491426
0.315713
-0.0533274
0.300012
-0.0573724
0.284615
-0.061108
0.269415
-0.064529
0.254559
-0.0676943
0.240074
-0.0706597
0.226152
-0.073098
0.212764
-0.0745521
0.199734
-0.075338
0.187528
-0.0759213
0.176323
-0.0763338
0.16595
-0.0766472
0.156289
-0.0766336
0.146822
-0.0759526
0.136999
-0.0736663
0.125557
-0.0677502
0.109963
-0.0550404
0.0860553
-0.0326131
0.0504578
-0.0117801
0.015186
-0.00387521
-0.000409478
-0.00159996
-0.00524721
-0.000772327
-0.00643314
-0.00025088
-0.00555505
-0.00247018
0.00141194
0.967173
0.00232125
0.963256
0.00186094
0.928562
0.00281079
0.877087
0.00147247
0.83956
0.00277889
0.800947
0.000929236
0.760088
0.00149638
0.731277
0.000652002
0.690304
0.000375944
0.666525
-0.000418357
0.630795
-0.00123795
0.607299
-0.00324667
0.577242
-0.00598971
0.55293
-0.0084541
0.526028
-0.0108345
0.502679
-0.0131416
0.481101
-0.0161452
0.460655
-0.0196886
0.440664
-0.0233008
0.421549
-0.0270332
0.403538
-0.031065
0.386148
-0.0356033
0.369357
-0.0404601
0.352901
-0.0452955
0.336566
-0.0501436
0.320561
-0.0549719
0.30484
-0.0596678
0.289311
-0.0641851
0.273933
-0.0683535
0.258727
-0.0719622
0.243683
-0.0746713
0.228861
-0.0766504
0.214743
-0.0784312
0.201514
-0.0798031
0.188899
-0.0804832
0.177003
-0.080827
0.166294
-0.0808413
0.156303
-0.0803088
0.146289
-0.0786683
0.135359
-0.0741183
0.121007
-0.0635113
0.0993559
-0.0432398
0.0657837
-0.0188874
0.0261055
-0.00698824
0.00328688
-0.0031502
-0.00424752
-0.00177747
-0.00661994
-0.00109935
-0.00711126
-0.000537664
-0.00611674
-0.00300784
0.00169201
0.965481
0.00226969
0.962678
0.00155743
0.929275
0.00275539
0.875889
0.00119957
0.841116
0.00262849
0.799518
0.000980983
0.761735
0.00191414
0.730344
0.000359167
0.691859
0.000515309
0.666369
-0.000261201
0.631572
-0.0014529
0.608491
-0.00276239
0.578551
-0.00520324
0.55537
-0.00760245
0.528428
-0.00998176
0.505059
-0.0118624
0.482981
-0.0140928
0.462885
-0.0168871
0.443459
-0.0200075
0.424669
-0.0235788
0.407109
-0.0275826
0.390152
-0.0316388
0.373413
-0.036126
0.357388
-0.0412536
0.341693
-0.0466788
0.325986
-0.0522378
0.310399
-0.0577799
0.294853
-0.0631016
0.279254
-0.0680814
0.263707
-0.0727434
0.248345
-0.0770874
0.233205
-0.0809778
0.218634
-0.0836334
0.20417
-0.0850414
0.190307
-0.0857947
0.177757
-0.085983
0.166482
-0.0853806
0.155701
-0.0836918
0.1446
-0.0798091
0.131476
-0.071109
0.112307
-0.0535364
0.0817832
-0.0268244
0.0390717
-0.00870724
0.00798832
-0.00212281
-0.00329756
0.000178152
-0.00654848
0.000585446
-0.00702723
0.000205428
-0.00673124
-0.000161939
-0.00574937
-0.00316978
0.00120343
0.964278
0.00315912
0.960722
0.00202483
0.930409
0.00343998
0.874474
0.00155213
0.843004
0.00305572
0.798014
0.00116665
0.763624
0.00224818
0.729263
0.00101748
0.693089
0.00134793
0.666038
0.0010615
0.631858
0.00119593
0.608357
0.000428353
0.579319
-0.00107038
0.556869
-0.00344043
0.530798
-0.00609815
0.507716
-0.00826226
0.485145
-0.010659
0.465282
-0.0138214
0.446621
-0.0172318
0.428079
-0.0207147
0.410592
-0.0249751
0.394412
-0.030078
0.378516
-0.0353353
0.362646
-0.0408105
0.347168
-0.0466718
0.331848
-0.0528044
0.316532
-0.059069
0.301117
-0.065341
0.285526
-0.0713623
0.269728
-0.0767818
0.253764
-0.0813899
0.237813
-0.0848164
0.22206
-0.0878276
0.207181
-0.090062
0.192542
-0.091219
0.178914
-0.0911313
0.166394
-0.0895175
0.154087
-0.0856788
0.140762
-0.0776864
0.123483
-0.061434
0.0960548
-0.0353538
0.055703
-0.00986386
0.0135818
0.00203087
-0.00390641
0.00654481
-0.0078115
0.0074865
-0.00749017
0.00638893
-0.00592967
0.00402393
-0.00436624
0.00144103
-0.00316646
-0.00172875
-0.000342925
0.964621
0.00186999
0.95851
0.000641847
0.931637
0.0018116
0.873304
0.000489958
0.844325
0.00148807
0.797016
5.48921e-05
0.765057
0.0012304
0.728087
-0.000148169
0.694468
0.000296263
0.665594
-0.000603595
0.632758
-0.00090124
0.608654
-0.00106574
0.579483
-0.00193428
0.557738
-0.00344772
0.532311
-0.00562225
0.509891
-0.00747728
0.487001
-0.00903012
0.466835
-0.0110026
0.448594
-0.0139631
0.43104
-0.0173264
0.413955
-0.0207166
0.397803
-0.024697
0.382496
-0.0296471
0.367596
-0.0353227
0.352844
-0.041559
0.338084
-0.0482625
0.323235
-0.0552951
0.30815
-0.0623997
0.292631
-0.0693515
0.27668
-0.0759715
0.260384
-0.0823155
0.244157
-0.0881597
0.227905
-0.0926506
0.211672
-0.0956128
0.195504
-0.0969049
0.180206
-0.0963822
0.165872
-0.0931621
0.150867
-0.0850036
0.132603
-0.0692821
0.107762
-0.044321
0.0710937
-0.0121533
0.0235352
0.00718635
-0.00575786
0.0141682
-0.0108883
0.0157823
-0.00942564
0.0147089
-0.00641673
0.0117655
-0.00298626
0.00760175
-0.000202495
0.00306398
0.00137131
0.00133523
-0.000528563
0.96515
0.00157197
0.956409
0.000315246
0.932894
0.00100281
0.872617
0.000201295
0.845127
0.000878339
0.796339
-0.000337859
0.766274
0.000434426
0.727315
-0.000615946
0.695518
0.000173982
0.664804
-0.000228156
0.63316
0.000445624
0.60798
0.000245395
0.579684
0.000145664
0.557837
-0.000908521
0.533365
-0.00282404
0.511806
-0.00500932
0.489186
-0.00704585
0.468872
-0.0091189
0.450667
-0.0116257
0.433547
-0.0148295
0.417159
-0.0188894
0.401862
-0.0234621
0.387069
-0.0284298
0.372563
-0.0340816
0.358496
-0.0405348
0.344537
-0.0476192
0.33032
-0.0552671
0.315798
-0.0633298
0.300694
-0.0715005
0.284851
-0.0794023
0.268286
-0.0865549
0.25131
-0.0922514
0.233601
-0.0970525
0.216473
-0.100808
0.199259
-0.102972
0.18237
-0.101689
0.164588
-0.095208
0.144386
-0.0810721
0.118467
-0.0558535
0.0825434
-0.0188094
0.0340496
0.00928322
-0.00455738
0.0181145
-0.0145891
0.0199555
-0.0127292
0.0192849
-0.00875513
0.0167844
-0.00391619
0.0130249
0.000773249
0.00834152
0.00448088
0.0034136
0.00629924
0.00474882
-0.00299531
0.968145
0.000136638
0.953277
-0.00154871
0.934579
-0.00102406
0.872092
-0.00194701
0.84605
-0.00145222
0.795845
-0.00253916
0.767361
-0.00194458
0.72672
-0.00304457
0.696618
-0.00267419
0.664433
-0.00339769
0.633884
-0.00326607
0.607849
-0.00300516
0.579423
-0.00278682
0.557619
-0.00296762
0.533546
-0.00390997
0.512749
-0.00525395
0.49053
-0.00644818
0.470066
-0.00752199
0.45174
-0.00939939
0.435424
-0.0116475
0.419407
-0.0141353
0.40435
-0.0176318
0.390565
-0.022246
0.377178
-0.0277336
0.363983
-0.0341105
0.350914
-0.0414687
0.337678
-0.0496475
0.323977
-0.0583689
0.309415
-0.0673805
0.293862
-0.0765281
0.277434
-0.0855536
0.260335
-0.094184
0.242231
-0.10133
0.223619
-0.106526
0.204455
-0.109091
0.184935
-0.106115
0.161612
-0.0959945
0.134265
-0.0712403
0.0937131
-0.0308557
0.0421588
0.00103237
0.00216151
0.0126374
-0.0161624
0.0147725
-0.0167242
0.0147267
-0.0126835
0.013422
-0.0074504
0.0113243
-0.00181849
0.00835681
0.00374077
0.00497994
0.00785775
0.00182372
0.00945546
0.00657255
-0.00310719
0.971252
-0.0011483
0.951318
-0.00205375
0.935485
-0.00284175
0.87288
-0.00337622
0.846584
-0.00332507
0.795793
-0.00376741
0.767803
-0.0034105
0.726363
-0.00386398
0.697072
-0.0030955
0.663665
-0.0035359
0.634324
-0.00297759
0.607291
-0.00288667
0.579332
-0.00236892
0.557101
-0.00199556
0.533173
-0.00257115
0.513324
-0.00413546
0.492094
-0.00586118
0.471792
-0.00700337
0.452883
-0.00827787
0.436698
-0.0107584
0.421888
-0.0137959
0.407388
-0.0171495
0.393919
-0.0212429
0.381271
-0.0263153
0.369056
-0.0324077
0.357006
-0.0397671
0.345037
-0.0484019
0.332611
-0.0579398
0.318953
-0.0682052
0.304128
-0.0790479
0.288277
-0.0896441
0.270932