/*--------------------------------*- C++ -*----------------------------------*\
| =========                 |                                                 |
| \\      /  F ield         | OpenFOAM: The Open Source CFD Toolbox           |
|  \\    /   O peration     | Version:  v1912                                 |
|   \\  /    A nd           | Website:  www.openfoam.com                      |
|    \\/     M anipulation  |                                                 |
\*---------------------------------------------------------------------------*/
FoamFile
{
    version     2.0;
    format      ascii;
    class       volVectorField;
    location    "0.05";
    object      U;
}
// * * * * * * * * * * * * * * * * * * * * * * * * * * * * * * * * * * * * * //

dimensions      [0 1 -1 0 0 0 0];


internalField   nonuniform List<vector> 
6600
(
(39.8458 -0.0508736 0)
(40.0824 -0.0522508 1.43358e-20)
(40.1349 0.0221159 1.00528e-18)
(40.1726 0.107628 0)
(40.2022 0.194473 1.22998e-18)
(40.239 0.277648 4.16816e-20)
(40.2814 0.3751 -4.62813e-20)
(40.325 0.508852 -5.12687e-20)
(40.3643 0.650205 1.04848e-18)
(40.4096 0.799647 -1.20178e-19)
(40.4378 0.959598 0)
(40.4657 1.12186 -1.31531e-18)
(40.4937 1.28484 0)
(40.5125 1.45883 -1.46216e-18)
(40.5265 1.64548 -2.02165e-18)
(40.531 1.84746 -1.08672e-18)
(40.5237 2.06361 0)
(40.5016 2.29711 0)
(40.4626 2.5523 1.8258e-18)
(40.4216 2.82577 -1.68482e-18)
(40.3924 3.12048 -2.5121e-19)
(40.3557 3.44656 -9.38324e-19)
(40.2853 3.8106 -1.75564e-18)
(40.2085 4.21492 3.93242e-19)
(40.1432 4.65811 1.45262e-18)
(40.0685 5.15265 0)
(39.9621 5.69187 3.55409e-18)
(39.8175 6.27592 0)
(39.6794 6.88489 -1.76431e-18)
(39.5683 7.51353 -1.13972e-18)
(39.4345 8.18271 -3.46489e-19)
(39.1869 8.90353 -1.41261e-18)
(38.984 9.66307 -6.05252e-19)
(38.8711 10.4831 1.17498e-18)
(38.7166 11.3854 3.81842e-19)
(38.5126 12.3318 1.32575e-18)
(38.3575 13.359 2.70585e-18)
(38.2146 14.5057 2.46789e-18)
(38.0199 15.7032 -1.77405e-18)
(37.8767 16.9974 1.82948e-18)
(37.7824 18.4024 9.09359e-19)
(37.6744 19.8743 0)
(37.585 21.4482 1.09422e-19)
(37.5639 23.1538 -1.23591e-19)
(37.5692 24.9249 0)
(37.6363 26.8864 -1.54068e-18)
(37.664 28.7901 -3.78433e-18)
(38.0836 31.1352 0)
(36.5495 32.272 0)
(26.8768 25.6914 -2.44677e-18)
(39.7455 -0.0524693 8.44226e-19)
(40.1572 -0.0862461 -8.80442e-19)
(40.2023 0.00290256 0)
(40.2445 0.11497 -1.66226e-20)
(40.2827 0.209361 1.16256e-18)
(40.3156 0.314659 4.01181e-20)
(40.3632 0.443672 -2.10955e-22)
(40.4087 0.587511 -4.92626e-20)
(40.4671 0.733405 0)
(40.5093 0.890943 -1.87605e-18)
(40.5386 1.06078 -6.75215e-20)
(40.5698 1.23146 1.16464e-18)
(40.602 1.40836 1.21876e-18)
(40.6285 1.59389 8.53269e-19)
(40.6478 1.79457 -1.83873e-21)
(40.662 2.0147 1.21194e-19)
(40.6809 2.25184 -1.05588e-18)
(40.6987 2.51107 0)
(40.7031 2.79593 0)
(40.6771 3.11388 1.71161e-18)
(40.6386 3.4634 2.34216e-19)
(40.611 3.83914 -1.25053e-18)
(40.5733 4.2378 -1.1252e-18)
(40.507 4.66334 -1.27809e-18)
(40.4179 5.10187 -1.0536e-18)
(40.32 5.55443 -4.40974e-19)
(40.2042 6.0252 -5.87534e-19)
(40.1115 6.53996 -5.70326e-19)
(39.9981 7.12113 1.74912e-18)
(39.8838 7.77394 3.11214e-19)
(39.7895 8.4658 -2.20542e-18)
(39.741 9.24228 2.00038e-18)
(39.6394 10.0504 1.30013e-18)
(39.5087 10.9037 -1.72681e-18)
(39.3881 11.8167 4.07742e-19)
(39.3146 12.8003 -1.35595e-18)
(39.2233 13.8412 7.86751e-19)
(39.125 14.9382 -9.27323e-19)
(39.0498 16.1238 -3.55492e-19)
(38.995 17.394 -3.62359e-19)
(39.022 18.7613 0)
(39.0819 20.2075 0)
(39.1763 21.723 5.81589e-19)
(39.317 23.3566 -7.28784e-19)
(39.4879 25.0395 -2.73002e-18)
(39.7679 26.8929 1.59095e-18)
(40.0842 28.7397 5.718e-18)
(40.6863 30.911 0)
(39.1767 31.6039 -6.09522e-18)
(28.1011 24.5892 2.70868e-18)
(39.6336 -0.0148727 -4.88275e-20)
(40.2635 -0.104415 8.98193e-19)
(40.2898 0.0371441 9.13757e-19)
(40.3193 0.126293 -2.8407e-22)
(40.3543 0.232859 -1.18157e-19)
(40.4139 0.373623 3.86159e-20)
(40.4546 0.512851 0)
(40.5074 0.653547 0)
(40.569 0.808911 0)
(40.6256 0.974522 9.99601e-19)
(40.6754 1.14264 -6.31879e-20)
(40.7142 1.3195 -1.17242e-18)
(40.7512 1.49488 -6.34217e-19)
(40.7859 1.68013 1.32246e-18)
(40.8159 1.88107 7.54123e-19)
(40.8351 2.10253 -1.1291e-19)
(40.8468 2.34531 2.1432e-18)
(40.8487 2.61075 -1.07168e-18)
(40.85 2.89849 -1.20632e-18)
(40.8518 3.21425 0)
(40.8454 3.55991 -7.66856e-19)
(40.8307 3.94532 1.00068e-18)
(40.8159 4.35366 1.13871e-18)
(40.7978 4.80565 1.29423e-18)
(40.7758 5.3038 1.12949e-18)
(40.7586 5.85362 -1.13142e-19)
(40.6996 6.44283 -2.122e-19)
(40.61 7.05088 -5.96749e-19)
(40.5543 7.65667 -2.6331e-19)
(40.5149 8.29353 1.0326e-18)
(40.4449 8.96644 3.17373e-19)
(40.2952 9.70013 0)
(40.1972 10.4878 -1.38345e-18)
(40.2029 11.3331 3.30283e-19)
(40.176 12.2502 6.79667e-19)
(40.1221 13.2091 6.86111e-19)
(40.1403 14.2343 -6.23818e-19)
(40.1743 15.34 -2.00881e-19)
(40.1735 16.4746 4.7686e-19)
(40.2483 17.7038 0)
(40.3956 19.0344 1.00239e-18)
(40.5682 20.4182 0)
(40.7847 21.8692 0)
(41.0967 23.4159 2.8031e-18)
(41.4764 25.0033 1.68214e-18)
(41.9389 26.7494 -3.24708e-18)
(42.4232 28.5045 -3.40952e-18)
(43.0592 30.3541 0)
(41.4028 30.6064 -3.7548e-18)
(28.9027 23.103 4.0787e-18)
(39.5454 0.0260503 -8.01125e-19)
(40.3608 -0.066427 6.26704e-21)
(40.3715 0.117518 -9.38135e-19)
(40.4119 0.188982 -9.11085e-19)
(40.4525 0.315593 -1.07188e-18)
(40.5026 0.426507 -5.29816e-19)
(40.5684 0.560103 -3.95274e-20)
(40.6344 0.720656 0)
(40.6853 0.888867 7.2076e-19)
(40.7474 1.05307 8.46681e-19)
(40.7994 1.22493 -5.81707e-20)
(40.8475 1.39622 -6.45132e-20)
(40.8847 1.57883 -5.32367e-19)
(40.9203 1.78552 -1.55231e-19)
(40.9643 2.00919 2.92472e-22)
(41.013 2.25521 -1.00843e-19)
(41.063 2.52638 -1.5488e-20)
(41.1034 2.82523 1.20799e-18)
(41.1194 3.15163 1.59483e-18)
(41.1156 3.51 0)
(41.1154 3.88976 1.28892e-19)
(41.1161 4.29704 0)
(41.1165 4.7274 0)
(41.0949 5.17451 -2.48925e-19)
(41.0564 5.62804 7.59086e-19)
(41.0164 6.09176 8.43245e-19)
(41.0034 6.59514 -1.69083e-19)
(40.969 7.17039 8.44824e-19)
(40.9146 7.80838 0)
(40.8803 8.4906 0)
(40.9079 9.19813 3.06178e-19)
(40.9618 9.96666 0)
(40.9513 10.7805 3.78658e-19)
(40.9313 11.634 3.29137e-19)
(40.9606 12.5334 -6.18048e-19)
(41.0397 13.507 -3.23558e-19)
(41.11 14.5329 -4.73441e-19)
(41.2145 15.6082 1.91496e-19)
(41.3497 16.7461 3.90364e-19)
(41.5091 17.921 4.56045e-19)
(41.7808 19.1773 -2.78564e-18)
(42.1194 20.5012 0)
(42.5126 21.865 0)
(42.9692 23.3066 -1.7415e-18)
(43.489 24.7646 -3.13396e-18)
(44.1236 26.3466 -8.02097e-19)
(44.8432 28.021 -5.3975e-18)
(45.479 29.5937 5.96221e-18)
(43.4817 29.3716 8.32547e-18)
(29.3126 21.3284 0)
(39.5294 0.0452784 -2.6912e-21)
(40.4508 -0.0206712 7.30183e-19)
(40.4646 0.166739 7.83592e-19)
(40.5198 0.240685 9.43983e-19)
(40.58 0.359313 0)
(40.636 0.499439 5.5304e-20)
(40.704 0.647979 0)
(40.7771 0.807139 -3.87693e-20)
(40.8396 0.959997 -1.32355e-18)
(40.8919 1.11765 -8.45575e-19)
(40.9492 1.27081 5.22607e-20)
(41.0135 1.43028 5.74119e-20)
(41.0697 1.61799 -6.38935e-20)
(41.1218 1.83242 -6.06029e-19)
(41.1699 2.06826 -1.32513e-18)
(41.2144 2.32975 8.70982e-20)
(41.2514 2.6127 -1.53269e-18)
(41.2822 2.91274 1.06707e-19)
(41.3256 3.23278 -5.23637e-19)
(41.3581 3.57837 -2.63012e-19)
(41.3781 3.95884 7.98556e-19)
(41.397 4.36695 0)
(41.4286 4.80653 0)
(41.4685 5.29386 -3.15879e-19)
(41.4984 5.83467 -4.87739e-19)
(41.5331 6.42822 4.5054e-19)
(41.5383 7.01893 -1.19359e-19)
(41.5496 7.62198 0)
(41.5731 8.23772 1.09043e-19)
(41.6119 8.90209 -1.21548e-19)
(41.6203 9.59627 -3.11192e-19)
(41.5905 10.3241 -3.37128e-20)
(41.6132 11.1005 5.23851e-20)
(41.7444 11.9476 7.99457e-20)
(41.8642 12.8558 -8.89606e-20)
(41.9695 13.779 0)
(42.1643 14.7572 2.78038e-19)
(42.3847 15.8003 1.80411e-18)
(42.5966 16.8625 -9.46646e-19)
(42.8972 17.9993 -1.23577e-18)
(43.2807 19.1975 1.80139e-18)
(43.711 20.4242 0)
(44.195 21.688 0)
(44.7855 23.0036 -2.97652e-18)
(45.4628 24.3227 6.52413e-18)
(46.2246 25.7656 1.75267e-18)
(47.0076 27.3055 3.264e-18)
(47.4875 28.5053 -7.12753e-18)
(44.9562 27.8264 5.90222e-19)
(29.1727 19.2487 -1.12188e-17)
(39.566 0.0213821 6.15275e-19)
(40.5319 -0.052296 -6.59574e-20)
(40.6036 0.126683 -7.97925e-19)
(40.6816 0.206714 3.71526e-19)
(40.7669 0.356181 0)
(40.8115 0.526258 5.10614e-19)
(40.8666 0.697846 -1.59934e-20)
(40.9326 0.835351 -5.07949e-19)
(40.9948 0.983681 6.45276e-19)
(41.0568 1.13866 0)
(41.1178 1.30414 4.46191e-20)
(41.1843 1.49746 3.05651e-19)
(41.2528 1.71139 -4.40104e-19)
(41.3241 1.94651 5.97135e-20)
(41.3964 2.20653 6.39771e-19)
(41.4744 2.49378 -7.16807e-20)
(41.5488 2.80786 5.09691e-19)
(41.6054 3.15278 -8.54291e-20)
(41.648 3.51593 9.03226e-20)
(41.6964 3.89531 2.20788e-19)
(41.7383 4.29458 2.84271e-19)
(41.7711 4.71605 2.8421e-21)
(41.7972 5.14983 1.19536e-19)
(41.829 5.58929 4.25687e-19)
(41.8587 6.03997 0)
(41.8792 6.51316 -3.46885e-19)
(41.9459 7.05334 4.95583e-20)
(41.982 7.65509 -1.76577e-20)
(42.0079 8.30712 -9.41263e-20)
(42.0635 8.98904 2.03723e-20)
(42.2238 9.71345 2.011e-19)
(42.401 10.4848 -1.35577e-20)
(42.501 11.2854 0)
(42.5957 12.1008 0)
(42.7767 12.9639 0)
(43.0116 13.8957 0)
(43.2437 14.8589 1.54872e-18)
(43.5363 15.8518 -2.9549e-18)
(43.8688 16.892 0)
(44.2326 17.9379 4.21921e-20)
(44.7177 19.0395 -3.07323e-19)
(45.2785 20.1771 -4.36265e-18)
(45.905 21.3245 2.40682e-18)
(46.5954 22.5078 0)
(47.3567 23.6743 2.36939e-18)
(48.211 24.9244 -8.59859e-18)
(49.1155 26.329 6.13801e-18)
(49.4206 27.2359 4.55115e-18)
(46.1234 26.0444 1.67664e-17)
(28.4509 16.8962 -1.25583e-17)
(39.6853 -0.24101 -6.19204e-19)
(40.6779 -0.237854 -1.23442e-18)
(40.8731 -0.0303924 1.00055e-20)
(40.9802 0.0909296 -3.73231e-19)
(41.0437 0.311296 3.29749e-19)
(41.0542 0.486473 -1.22814e-20)
(41.0967 0.628825 4.01816e-19)
(41.1407 0.778751 5.09987e-19)
(41.2058 0.929134 4.62998e-19)
(41.2787 1.09594 -1.73099e-20)
(41.3552 1.29753 -2.57195e-19)
(41.4341 1.52053 -8.27047e-20)
(41.5086 1.76058 3.8856e-19)
(41.5818 2.01649 0)
(41.648 2.28967 0)
(41.7109 2.57851 2.55356e-20)
(41.7776 2.87759 4.10181e-19)
(41.8498 3.19379 0)
(41.9225 3.53769 2.90849e-20)
(41.9942 3.90902 -3.5677e-19)
(42.0705 4.30976 -3.10551e-19)
(42.148 4.74024 2.67538e-20)
(42.23 5.20677 0)
(42.317 5.71012 -1.72646e-19)
(42.4095 6.26299 -1.04204e-20)
(42.5104 6.85682 1.16052e-20)
(42.605 7.44587 0)
(42.7158 8.03783 0)
(42.8227 8.65064 -1.21102e-19)
(42.9376 9.30668 2.55577e-19)
(43.0115 9.98761 -4.05502e-19)
(43.1006 10.6982 2.24714e-19)
(43.2641 11.4522 4.13753e-19)
(43.525 12.2657 -1.03502e-18)
(43.7818 13.1209 1.88315e-18)
(44.0386 13.9723 6.92731e-19)
(44.3927 14.8626 -1.08113e-18)
(44.7738 15.7978 1.46823e-18)
(45.1604 16.731 -2.4883e-18)
(45.6428 17.7208 5.71661e-20)
(46.2102 18.7415 -3.66642e-19)
(46.8281 19.7623 2.24679e-18)
(47.491 20.7875 3.39446e-18)
(48.2524 21.8239 -3.77086e-18)
(49.0971 22.8339 2.3863e-18)
(50.0151 23.9488 0)
(50.8464 25.1679 3.69931e-18)
(50.7859 25.661 5.56041e-18)
(46.4626 23.986 -1.15936e-17)
(26.9662 14.2991 -3.59904e-18)
(39.395 -0.889903 4.82809e-19)
(41.0958 -0.379094 5.7102e-19)
(41.1406 -0.147938 4.46275e-21)
(41.2964 0.00639073 -2.54929e-19)
(41.294 0.244684 -6.24004e-19)
(41.3392 0.396146 2.9807e-19)
(41.3547 0.563733 -7.05773e-19)
(41.3848 0.744837 1.60148e-19)
(41.4505 0.920981 -4.4916e-19)
(41.5159 1.13988 -1.85499e-19)
(41.595 1.36691 4.6367e-19)
(41.6701 1.60495 -3.04577e-19)
(41.7502 1.86769 -1.82397e-19)
(41.8497 2.14554 1.363e-21)
(41.9558 2.44277 -6.96404e-20)
(42.0572 2.76077 7.82315e-20)
(42.151 3.09556 -1.72293e-19)
(42.2387 3.44355 0)
(42.3225 3.80757 0)
(42.4098 4.19011 0)
(42.501 4.59191 -2.41032e-21)
(42.5855 5.01343 -5.68502e-20)
(42.6692 5.45152 1.02583e-19)
(42.7648 5.89304 1.5803e-20)
(42.8712 6.33425 0)
(42.9534 6.80587 0)
(43.0832 7.35449 -2.53774e-19)
(43.203 7.9629 1.40862e-19)
(43.3255 8.60119 -1.1122e-19)
(43.4627 9.26649 1.33058e-19)
(43.749 9.96247 6.25338e-20)
(44.0387 10.7041 6.62395e-19)
(44.2517 11.4723 -3.20429e-19)
(44.4629 12.2317 1.25889e-18)
(44.7765 13.0228 -8.65335e-19)
(45.1483 13.8735 -4.30293e-19)
(45.5158 14.732 1.88817e-19)
(45.9474 15.5966 1.06331e-18)
(46.4256 16.4911 1.08596e-18)
(46.935 17.3637 1.70664e-18)
(47.5567 18.2682 -3.46978e-19)
(48.2459 19.1811 3.12697e-18)
(49.0037 20.0783 -3.47819e-18)
(49.8175 20.9768 0)
(50.6964 21.8445 0)
(51.6672 22.8372 0)
(52.3595 23.7007 0)
(51.9627 23.9883 0)
(46.3041 21.7436 -6.71911e-18)
(24.6722 11.5264 1.10288e-17)
(38.3492 -1.11841 -4.85843e-19)
(41.7486 -0.211337 0)
(41.2946 -0.145785 0)
(41.5317 0.0410919 2.59039e-19)
(41.442 0.230143 2.78277e-19)
(41.5283 0.325822 -2.96591e-19)
(41.5733 0.537895 3.14665e-19)
(41.6272 0.730639 -1.60659e-19)
(41.7137 0.948984 1.08025e-19)
(41.8059 1.20559 1.81564e-19)
(41.8927 1.43909 -1.79627e-19)
(41.968 1.68483 7.28958e-20)
(42.0483 1.94201 2.15845e-19)
(42.1352 2.20726 0)
(42.2252 2.48672 8.65631e-20)
(42.3256 2.78159 -8.11001e-20)
(42.4369 3.09085 3.38725e-21)
(42.5597 3.41772 9.78045e-20)
(42.6802 3.76666 -1.5367e-19)
(42.7987 4.1424 0)
(42.9282 4.53908 0)
(43.0667 4.96514 -2.12765e-19)
(43.2058 5.43293 1.68922e-19)
(43.3501 5.95305 3.8128e-19)
(43.5147 6.51268 1.0499e-19)
(43.7099 7.09821 -4.44866e-19)
(43.8927 7.66398 6.802e-19)
(44.0868 8.22959 -7.88762e-19)
(44.2821 8.82882 4.28802e-19)
(44.4718 9.45924 -3.82409e-19)
(44.6158 10.1047 2.29579e-19)
(44.8082 10.7576 -7.37018e-19)
(45.0826 11.4508 5.44387e-19)
(45.4517 12.1964 -9.13829e-19)
(45.8205 12.9712 0)
(46.1886 13.7158 -9.08782e-19)
(46.6547 14.4887 -9.35484e-19)
(47.1464 15.287 2.08565e-19)
(47.6427 16.0576 2.04573e-18)
(48.233 16.8672 -2.03678e-18)
(48.9039 17.6832 -3.18801e-19)
(49.618 18.4766 -3.55968e-18)
(50.3576 19.2488 8.37406e-18)
(51.1788 20.0004 5.38067e-19)
(52.076 20.7192 6.44185e-19)
(53.066 21.6167 -3.35129e-18)
(53.4497 22.1475 0)
(52.3486 22.1158 6.02113e-18)
(45.0429 19.2934 -3.19445e-18)
(21.4533 8.69626 0)
(37.4658 -0.69797 1.15351e-21)
(42.2491 0.11416 -1.08703e-22)
(41.3122 -0.112648 -1.44918e-19)
(41.7493 0.148925 0)
(41.524 0.305559 -2.62119e-21)
(41.6634 0.405975 -5.92181e-20)
(41.7193 0.629458 0)
(41.8066 0.807909 5.49621e-20)
(41.9194 1.04584 -1.12694e-19)
(42.0222 1.29911 4.84692e-21)
(42.1159 1.54799 8.93395e-21)
(42.2299 1.80688 -9.18387e-20)
(42.3613 2.06979 -3.27252e-20)
(42.4833 2.34284 0)
(42.6042 2.63043 0)
(42.7288 2.92922 0)
(42.8504 3.24954 1.63839e-19)
(42.9815 3.58966 -9.9438e-20)
(43.1301 3.94767 3.39876e-19)
(43.2772 4.32852 -4.48763e-20)
(43.4196 4.72742 1.0992e-19)
(43.5659 5.13708 1.4732e-19)
(43.7099 5.5515 -7.57717e-19)
(43.8681 5.97366 -6.82687e-19)
(44.0449 6.41034 0)
(44.2057 6.88062 4.38941e-19)
(44.3922 7.4224 -1.15121e-18)
(44.5979 8.00679 7.26279e-19)
(44.8121 8.60998 -4.16559e-19)
(45.0399 9.2396 2.47449e-19)
(45.4124 9.90033 -3.52789e-19)
(45.7977 10.5923 1.3237e-18)
(46.1087 11.2964 -1.49482e-18)
(46.4059 11.9699 2.06644e-18)
(46.8071 12.6591 8.76375e-19)
(47.2774 13.4063 -2.07358e-18)
(47.7299 14.1345 2.60147e-18)
(48.2354 14.8472 -1.69721e-18)
(48.7905 15.5772 2.75029e-20)
(49.3722 16.2643 0)
(50.0457 16.9639 2.89159e-18)
(50.7666 17.6479 1.97289e-18)
(51.5549 18.2975 2.19981e-19)
(52.3941 18.9236 -5.64442e-18)
(53.2971 19.5354 -2.11404e-19)
(54.1672 20.2348 -3.86564e-18)
(54.2866 20.4763 0)
(52.3815 20.1504 6.28584e-18)
(43.0623 16.7011 -1.05418e-17)
(17.243 5.82303 0)
(37.1486 -0.0458071 0)
(42.4035 0.324442 0)
(41.2285 0.0282547 9.96573e-20)
(42.0581 0.254255 -2.94267e-21)
(41.6615 0.494505 3.23255e-20)
(41.9005 0.582142 6.22594e-20)
(41.9116 0.80961 0)
(42.0392 0.959463 -5.5088e-20)
(42.178 1.14285 -2.71303e-20)
(42.2693 1.35016 0)
(42.3709 1.56998 3.34632e-20)
(42.4957 1.80746 -5.42883e-20)
(42.6209 2.06314 9.16853e-21)
(42.7526 2.32903 -1.02223e-20)
(42.8974 2.59279 0)
(43.0527 2.86245 0)
(43.2052 3.14862 -4.03858e-20)
(43.3604 3.45727 -1.84698e-19)
(43.5333 3.79034 9.52124e-20)
(43.7225 4.15117 -3.67179e-20)
(43.916 4.54657 8.79018e-20)
(44.1231 4.97537 -5.23816e-20)
(44.3356 5.44252 4.71888e-19)
(44.5342 5.9468 2.0604e-19)
(44.7624 6.48831 -4.06215e-19)
(45.0399 7.04611 -6.35396e-19)
(45.3125 7.58806 4.22582e-19)
(45.5779 8.13258 6.9256e-19)
(45.8505 8.70091 0)
(46.0999 9.28035 0)
(46.3123 9.87236 0)
(46.5796 10.4534 -9.38147e-19)
(46.9274 11.0653 -6.76097e-19)
(47.3727 11.7279 -7.02165e-19)
(47.8134 12.4043 1.04698e-18)
(48.2339 13.0249 1.28378e-18)
(48.7527 13.6718 -6.06331e-19)
(49.2952 14.3303 1.83539e-18)
(49.8325 14.9358 -1.07319e-18)
(50.4555 15.5665 -1.42648e-18)
(51.15 16.1821 -1.75752e-18)
(51.8771 16.7606 1.95967e-18)
(52.6094 17.3 0)
(53.4036 17.8048 3.13826e-18)
(54.3227 18.3476 -1.70927e-18)
(54.8764 18.7356 2.11582e-18)
(54.5986 18.788 0)
(51.3506 17.9972 -3.13789e-18)
(39.5402 13.8528 1.83502e-18)
(11.8505 2.99176 0)
(37.3728 0.561098 2.02406e-20)
(42.402 0.360725 0)
(41.0049 0.405415 6.56564e-20)
(42.3534 0.397339 1.25541e-20)
(41.7616 0.718878 -3.09354e-20)
(42.155 0.735055 -4.32383e-22)
(42.0666 1.03853 4.81321e-22)
(42.25 1.1395 0)
(42.3759 1.30692 2.48267e-20)
(42.4917 1.46898 -6.61207e-20)
(42.6454 1.63816 -4.25157e-20)
(42.782 1.84179 7.16603e-20)
(42.915 2.08576 -7.93466e-20)
(43.0791 2.33638 -2.14101e-20)
(43.2616 2.60693 1.30302e-20)
(43.443 2.9028 0)
(43.6313 3.21098 -1.83936e-19)
(43.8229 3.52811 2.33042e-19)
(44.0169 3.86213 5.60775e-20)
(44.22 4.2126 -5.65411e-21)
(44.4237 4.58809 5.78019e-20)
(44.6249 4.9809 0)
(44.843 5.38355 1.00135e-19)
(45.0746 5.79329 4.13815e-19)
(45.3039 6.20741 5.14373e-19)
(45.5374 6.65986 6.38844e-19)
(45.7823 7.17943 0)
(46.0611 7.72837 -4.89345e-19)
(46.3465 8.29137 -1.07608e-18)
(46.6598 8.87733 6.0645e-19)
(47.0785 9.48528 -1.32225e-18)
(47.5342 10.1157 -6.59405e-19)
(47.9192 10.7525 1.1977e-18)
(48.2582 11.3355 -4.41234e-19)
(48.6977 11.9199 -1.05606e-18)
(49.2184 12.556 -5.72329e-19)
(49.7022 13.1508 -7.84165e-19)
(50.2191 13.714 0)
(50.7848 14.2929 -1.28915e-18)
(51.3732 14.8126 2.86135e-18)
(52.0287 15.3319 1.7728e-18)
(52.7033 15.8142 -2.10356e-18)
(53.4393 16.2502 2.73289e-18)
(54.2421 16.6696 -1.4244e-18)
(55.0843 17.0918 3.53849e-18)
(55.2939 17.2151 2.35546e-20)
(54.4137 17.0044 0)
(49.627 15.6328 6.44762e-18)
(35.261 10.7819 -5.4858e-18)
(6.79185 0.638504 -2.02383e-18)
(37.98 1.005 -2.02562e-20)
(42.4037 0.273214 -2.67659e-20)
(40.8633 0.671831 -2.00311e-20)
(42.6121 0.471611 -1.21951e-20)
(41.7612 0.838128 -1.72947e-20)
(42.4153 0.744395 -1.47442e-21)
(42.2124 1.09319 9.77452e-22)
(42.4498 1.16137 0)
(42.5576 1.32947 -7.78132e-20)
(42.7155 1.47706 1.17986e-19)
(42.9145 1.60558 0)
(43.0624 1.78455 -1.04007e-20)
(43.1942 1.98186 -1.0719e-20)
(43.3585 2.17416 1.32965e-19)
(43.533 2.39693 -2.07203e-19)
(43.7349 2.65061 -3.25777e-21)
(43.9596 2.92995 3.03996e-20)
(44.1992 3.2372 0)
(44.444 3.56725 -1.32242e-19)
(44.6964 3.90998 3.15304e-19)
(44.9599 4.27901 -3.73673e-20)
(45.2307 4.68919 0)
(45.5028 5.14079 0)
(45.7792 5.6384 -2.08081e-19)
(46.0762 6.16684 9.36951e-20)
(46.4089 6.6872 -6.93706e-19)
(46.7444 7.18953 2.66925e-19)
(47.0747 7.70579 -1.55707e-19)
(47.4038 8.22854 5.23244e-19)
(47.7027 8.76122 2.30926e-19)
(47.96 9.29787 7.71765e-19)
(48.2607 9.80881 -7.96835e-19)
(48.6396 10.3331 5.10674e-19)
(49.1309 10.9124 -5.45934e-19)
(49.6062 11.4974 -6.55642e-19)
(50.0314 12.0138 -7.18177e-19)
(50.545 12.5459 0)
(51.0812 13.0818 1.71723e-18)
(51.6025 13.5441 -6.4273e-19)
(52.1966 14.026 -1.55342e-18)
(52.8459 14.4727 1.85267e-18)
(53.5183 14.874 -5.35981e-20)
(54.188 15.2357 -1.41598e-18)
(54.9846 15.6202 -3.00794e-20)
(55.4191 15.7957 -1.82559e-18)
(55.3188 15.7644 -4.64455e-18)
(53.4262 15.194 2.62721e-18)
(46.4116 13.0849 0)
(29.0815 7.36863 -3.65498e-18)
(3.81134 -0.353109 7.00483e-18)
(38.7181 1.40765 4.02426e-23)
(42.3467 -0.170581 2.7136e-20)
(40.8726 0.937494 -7.09963e-21)
(42.8007 0.375755 -3.42406e-22)
(41.7659 0.920817 1.71565e-20)
(42.6601 0.657774 0)
(42.3109 1.0908 0)
(42.6263 1.06048 -2.55428e-21)
(42.659 1.29049 1.40906e-19)
(42.8593 1.42493 -5.43789e-20)
(43.1065 1.54366 5.57462e-21)
(43.3194 1.71968 -1.33113e-20)
(43.5428 1.9046 5.86671e-20)
(43.7327 2.11183 -6.36998e-20)
(43.9159 2.3443 3.03425e-19)
(44.1207 2.57785 -7.28752e-20)
(44.3577 2.83336 9.01278e-20)
(44.6089 3.12835 2.67354e-20)
(44.8754 3.46168 -2.90646e-19)
(45.1561 3.81271 -2.04479e-19)
(45.4336 4.16831 4.51293e-21)
(45.6974 4.53014 -5.61039e-20)
(45.9723 4.90248 0)
(46.2587 5.28193 -2.7481e-19)
(46.5489 5.68644 4.37648e-21)
(46.8482 6.12943 7.19882e-20)
(47.1446 6.61445 7.47829e-20)
(47.4849 7.12841 1.99906e-19)
(47.8177 7.66312 0)
(48.185 8.19771 1.42427e-19)
(48.6253 8.75033 8.11022e-19)
(49.1227 9.32645 7.52581e-19)
(49.5522 9.90562 -4.09171e-19)
(49.8971 10.418 8.46202e-19)
(50.3245 10.9116 -6.90912e-19)
(50.8514 11.4492 -4.271e-19)
(51.3274 11.9419 0)
(51.8106 12.3861 -1.14742e-18)
(52.3354 12.8463 -7.30343e-19)
(52.8813 13.2357 8.15802e-19)
(53.4672 13.6222 -9.81691e-19)
(54.0406 13.9569 1.16949e-18)
(54.6882 14.2625 0)
(55.3622 14.5306 7.69672e-19)
(55.5187 14.5763 0)
(54.8761 14.3605 1.1725e-18)
(51.4788 13.3799 -2.66354e-18)
(41.8784 10.5357 1.51187e-18)
(21.873 4.24177 0)
(1.37483 -0.462017 4.61705e-19)
(39.3924 1.65012 1.07125e-23)
(42.1841 -0.765767 1.19235e-23)
(41.1748 1.08816 7.38275e-21)
(42.9819 0.0704125 8.0072e-23)
(41.7808 0.911457 6.02223e-22)
(42.9282 0.422668 1.31033e-22)
(42.4305 0.971038 -1.45416e-22)
(42.8802 0.823145 4.23026e-22)
(42.8154 1.13216 -5.61709e-20)
(43.0324 1.22163 -1.40673e-21)
(43.2258 1.33322 -8.64407e-22)
(43.4643 1.47609 2.05611e-21)
(43.7357 1.6049 7.37881e-20)
(43.9809 1.79268 -9.43382e-20)
(44.2002 2.01183 -1.24032e-19)
(44.4514 2.2282 7.26686e-20)
(44.7127 2.45759 -8.72431e-20)
(44.9861 2.71171 -4.09582e-21)
(45.274 2.99676 -5.01042e-21)
(45.588 3.32787 0)
(45.9442 3.70426 -7.46879e-21)
(46.3037 4.11101 -4.46023e-21)
(46.6433 4.54952 4.98571e-21)
(46.9913 5.02331 0)
(47.3428 5.52011 0)
(47.7152 6.01439 2.65737e-19)
(48.1023 6.49611 0)
(48.4834 6.98055 -2.00171e-19)
(48.8403 7.46961 0)
(49.177 7.96793 1.00085e-20)
(49.466 8.46007 -3.71843e-19)
(49.759 8.91602 2.64869e-20)
(50.1307 9.36692 -5.3417e-19)
(50.631 9.87184 4.78298e-20)
(51.1177 10.3923 3.10292e-19)
(51.5135 10.8366 4.81568e-19)
(51.9785 11.2785 -1.6811e-20)
(52.4683 11.7293 0)
(52.9374 12.0949 -1.17403e-20)
(53.458 12.4791 1.38355e-20)
(54.0123 12.8119 0)
(54.5902 13.1077 -1.89397e-20)
(55.2598 13.4182 -8.60116e-20)
(55.5232 13.5446 -6.89547e-19)
(55.3031 13.4759 -1.51412e-20)
(53.6539 13.0606 0)
(48.2475 11.6803 0)
(35.1907 8.22726 2.08872e-19)
(11.0755 1.57628 -2.06483e-19)
(-0.593888 -0.077951 4.66457e-19)
(39.8533 1.81228 3.22935e-20)
(41.9714 -1.15524 4.66256e-20)
(41.5737 1.3121 1.83807e-20)
(42.9596 -0.281119 3.47754e-20)
(41.8422 0.93524 2.69707e-20)
(43.1124 0.159017 -4.77951e-20)
(42.5267 0.865334 0)
(43.1243 0.538976 0)
(42.9791 0.972081 4.15528e-20)
(43.2341 0.975506 1.40667e-21)
(43.3751 1.16212 -6.1994e-20)
(43.6208 1.29919 -4.55557e-21)
(43.9432 1.39762 -9.63097e-20)
(44.2146 1.57435 1.20428e-19)
(44.491 1.78447 1.62831e-19)
(44.7714 2.00883 0)
(45.0746 2.25971 0)
(45.386 2.52473 4.09519e-21)
(45.6979 2.79695 5.00962e-21)
(46.0012 3.08303 -2.22235e-19)
(46.315 3.39952 7.46752e-21)
(46.6655 3.75095 0)
(47.0157 4.11192 0)
(47.3538 4.47492 -5.90052e-20)
(47.7079 4.86695 -2.92775e-19)
(48.0689 5.29902 8.90692e-20)
(48.4209 5.77471 0)
(48.7845 6.27831 -2.46099e-19)
(49.1559 6.77401 0)
(49.5477 7.27157 -1.0006e-20)
(49.9865 7.7885 0)
(50.4974 8.32889 0)
(50.9551 8.86963 1.44758e-19)
(51.2839 9.34633 1.70626e-19)
(51.6583 9.77114 0)
(52.1548 10.2423 0)
(52.5978 10.6799 1.68024e-20)
(53.0246 11.0503 0)
(53.4804 11.439 1.1733e-20)
(53.96 11.752 -4.67666e-19)
(54.453 12.0704 5.38712e-19)
(54.9857 12.3848 4.49212e-20)
(55.3429 12.5907 2.77591e-20)
(55.3683 12.6129 -7.67025e-19)
(54.6138 12.4924 -4.8517e-19)
(51.5542 11.7965 2.76656e-18)
(43.2195 9.79059 -1.25166e-18)
(26.1988 5.48274 -1.45181e-18)
(4.83812 0.511634 1.19395e-18)
(-1.54791 0.166381 0)
(40.2369 1.7836 -3.2153e-20)
(41.7778 -1.38231 6.14274e-20)
(42.0212 1.35602 -1.79482e-20)
(42.8826 -0.62353 4.4539e-20)
(42.001 0.875141 -2.89837e-20)
(43.2153 -0.121266 4.89324e-20)
(42.5958 0.687958 3.87019e-21)
(43.3243 0.213334 -4.30847e-21)
(43.1379 0.703222 -3.54916e-20)
(43.4605 0.601665 -6.7095e-21)
(43.5192 0.854854 6.60338e-20)
(43.7619 0.943724 1.84662e-19)
(44.0433 1.02229 -1.26474e-19)
(44.3591 1.1477 -1.09632e-19)
(44.6645 1.29443 -5.28132e-19)
(44.9767 1.49255 2.72901e-20)
(45.3096 1.71274 -3.04619e-20)
(45.679 1.95179 3.28133e-19)
(46.0621 2.22546 5.04516e-20)
(46.4474 2.53025 1.65621e-19)
(46.8287 2.85312 0)
(47.2233 3.21827 0)
(47.6562 3.65935 0)
(48.0829 4.1257 0)
(48.4788 4.60295 2.87349e-19)
(48.8804 5.07873 -7.54018e-19)
(49.3158 5.53787 0)
(49.7388 6.00321 7.79514e-19)
(50.1209 6.49656 0)
(50.4822 6.98622 0)
(50.7871 7.45954 -8.84631e-19)
(51.0599 7.89059 5.20021e-19)
(51.3901 8.29859 -1.19479e-18)
(51.8696 8.7478 3.44016e-19)
(52.3518 9.23894 0)
(52.7042 9.64297 0)
(53.1005 10.0236 5.85754e-19)
(53.5241 10.4331 -2.01419e-18)
(53.9325 10.7565 0)
(54.3649 11.1066 -1.40806e-18)
(54.8447 11.4207 2.08956e-18)
(55.338 11.7247 -2.29168e-18)
(55.4774 11.8068 1.32355e-18)
(55.1847 11.8744 -1.68446e-18)
(53.3478 11.5522 4.28033e-18)
(47.9249 10.4217 -3.78228e-18)
(35.7989 7.62752 2.47802e-18)
(14.2703 2.46855 -5.5164e-18)
(0.850207 0.239854 6.55642e-18)
(-2.15585 0.16576 -4.22148e-18)
(40.4299 1.77448 -9.38313e-20)
(41.6217 -1.50879 1.05029e-20)
(42.2739 1.43322 0)
(42.6255 -0.918976 -7.88495e-20)
(42.1557 0.896595 -1.61859e-19)
(43.1752 -0.404079 6.36357e-21)
(42.5892 0.578707 0)
(43.4126 -0.110479 0)
(43.1847 0.491612 -1.32826e-20)
(43.6098 0.241468 1.47972e-20)
(43.6484 0.591773 -3.18365e-19)
(43.9112 0.651183 2.16566e-19)
(44.1817 0.782893 2.2876e-19)
(44.4958 0.892526 -3.06141e-19)
(44.867 0.997481 3.49348e-19)
(45.1866 1.17319 5.92873e-20)
(45.5216 1.39158 -6.39502e-19)
(45.9085 1.60566 -1.03238e-18)
(46.3182 1.84533 0)
(46.7271 2.12863 5.29582e-19)
(47.1352 2.43079 6.4584e-19)
(47.521 2.7124 0)
(47.8994 3.01765 -9.43572e-19)
(48.3109 3.39112 0)
(48.7558 3.789 0)
(49.1882 4.23525 7.51742e-19)
(49.5771 4.72417 4.85807e-19)
(49.9455 5.21906 1.15132e-18)
(50.3512 5.70002 0)
(50.7425 6.1962 0)
(51.1656 6.69976 4.14263e-19)
(51.6633 7.2225 5.22044e-19)
(52.1406 7.75868 1.92935e-18)
(52.4483 8.2388 3.4315e-20)
(52.7515 8.6219 3.93289e-20)
(53.1914 9.06086 -2.0157e-18)
(53.5929 9.48669 -5.15335e-20)
(53.9661 9.82922 2.69563e-18)
(54.3554 10.1955 1.61634e-18)
(54.7915 10.4939 9.11117e-19)
(55.2934 10.861 2.05692e-18)
(55.4692 11.0338 8.06116e-20)
(55.323 11.179 -2.8231e-18)
(54.2475 11.0764 -1.65022e-18)
(50.7096 10.4639 -4.72555e-18)
(42.2043 8.67892 5.341e-18)
(25.591 5.01306 -2.38026e-18)
(5.36199 0.888477 0)
(-1.70738 0.395324 0)
(-2.28261 0.210918 8.29387e-19)
(40.5843 1.64577 2.95329e-19)
(41.4838 -1.57213 1.30854e-19)
(42.5463 1.33197 -1.21515e-19)
(42.4229 -1.1149 5.03153e-21)
(42.3455 0.806061 3.24398e-19)
(43.0763 -0.670541 -6.85816e-21)
(42.6071 0.416858 0)
(43.4327 -0.405592 -3.77655e-19)
(43.1841 0.209299 -1.41016e-20)
(43.723 -0.19023 -2.02643e-21)
(43.7305 0.198859 6.6792e-19)
(44.0318 0.157176 -3.72878e-19)
(44.2272 0.32733 3.30722e-21)
(44.5645 0.419453 2.67834e-19)
(44.9478 0.465452 0)
(45.3249 0.589401 0)
(45.6793 0.754181 4.94139e-19)
(46.0748 0.941197 7.89623e-19)
(46.531 1.16029 0)
(47.0106 1.42999 -5.27922e-19)
(47.5085 1.76656 -6.43694e-19)
(48.0207 2.15146 -2.10685e-19)
(48.5219 2.53796 1.69084e-19)
(48.9878 2.95531 9.06619e-19)
(49.421 3.42876 3.39971e-19)
(49.8804 3.89536 4.33004e-19)
(50.3815 4.36485 -1.44652e-18)
(50.8543 4.86349 -1.14015e-18)
(51.2746 5.37911 1.43575e-18)
(51.6432 5.89245 -1.68652e-18)
(51.9623 6.38028 0)
(52.2092 6.82931 0)
(52.4701 7.21962 6.09035e-20)
(52.8996 7.63462 -1.49647e-18)
(53.3641 8.13014 1.81113e-18)
(53.6826 8.52239 3.15987e-18)
(54.0129 8.87048 -1.18058e-18)
(54.3756 9.26226 -2.82988e-18)
(54.7527 9.57948 -3.24117e-18)
(55.2019 9.99444 -1.86046e-18)
(55.4967 10.298 -7.05716e-20)
(55.4929 10.4377 2.45846e-18)
(54.9483 10.4961 0)
(52.7011 10.2616 1.63239e-18)
(46.6138 9.15796 1.86104e-18)
(33.5885 6.59314 2.09333e-18)
(11.8761 2.12223 7.03682e-18)
(0.547342 0.641912 -2.61544e-18)
(-2.82374 0.508647 0)
(-2.10345 0.32365 0)
(40.5911 1.56456 4.8023e-21)
(41.3661 -1.56925 -2.48759e-19)
(42.6482 1.2696 1.2577e-19)
(42.1167 -1.25779 -3.54723e-19)
(42.4627 0.764761 -1.79827e-19)
(42.8677 -0.909899 -6.16973e-22)
(42.5938 0.324739 8.62894e-21)
(43.3373 -0.678874 3.53228e-19)
(43.1039 0.0444622 2.63836e-20)
(43.6943 -0.51621 3.65152e-20)
(43.7029 -0.0764148 -3.25292e-19)
(44.0659 -0.241363 -5.01244e-20)
(44.258 0.0122313 -5.27602e-19)
(44.5833 0.080303 -6.60168e-19)
(45.0014 0.149186 1.0743e-19)
(45.4086 0.251127 -1.19835e-19)
(45.8001 0.379885 0)
(46.1981 0.527803 -7.74323e-19)
(46.6353 0.697489 0)
(47.1142 0.898713 0)
(47.6162 1.13273 0)
(48.1274 1.41683 -4.44191e-19)
(48.6194 1.74768 1.49767e-18)
(49.1312 2.10285 -1.20462e-18)
(49.6656 2.48989 0)
(50.1485 2.96105 -4.59203e-19)
(50.5822 3.4663 -1.66232e-18)
(51.0018 3.9808 -2.57332e-18)
(51.4272 4.51056 -2.17715e-18)
(51.8327 5.03404 1.62474e-18)
(52.2349 5.56251 -2.01304e-18)
(52.6983 6.10201 1.14836e-18)
(53.1875 6.66892 2.78195e-18)
(53.4805 7.18158 0)
(53.7029 7.54701 1.92348e-18)
(54.0569 7.97217 -4.23842e-18)
(54.4146 8.39485 -7.34993e-20)
(54.7592 8.73488 2.79925e-18)
(55.1504 9.13183 1.59861e-18)
(55.569 9.48703 0)
(55.6827 9.64507 2.0828e-18)
(55.4254 9.84404 -2.51841e-18)
(53.9119 9.89111 5.69846e-18)
(49.4059 9.20291 0)
(39.1273 7.36631 -7.34607e-18)
(20.8951 3.79731 2.02566e-18)
(3.79568 0.973208 -2.29254e-18)
(-1.96158 0.828446 -2.56212e-18)
(-3.21067 0.658133 5.68842e-18)
(-1.86103 0.393543 2.55785e-21)
(40.5556 1.42883 -2.05288e-19)
(41.2174 -1.53451 2.42011e-19)
(42.7669 1.08597 -2.61337e-19)
(41.8754 -1.31902 6.96454e-19)
(42.5883 0.603291 -3.73665e-19)
(42.6314 -1.07778 2.99038e-20)
(42.615 0.143761 -2.83705e-19)
(43.1989 -0.924452 0)
(43.0211 -0.201461 -4.13616e-19)
(43.6427 -0.868206 6.04058e-19)
(43.6693 -0.425943 4.44455e-21)
(44.0761 -0.734965 -5.0387e-20)
(44.215 -0.482478 5.25837e-19)
(44.5475 -0.489026 -3.03225e-21)
(44.9037 -0.432643 7.121e-19)
(45.3577 -0.370845 1.21537e-19)
(45.8356 -0.304997 0)
(46.2795 -0.164323 7.70873e-19)
(46.7563 0.00273571 1.94577e-18)
(47.2803 0.190053 0)