/*--------------------------------*- C++ -*----------------------------------*\
| =========                 |                                                 |
| \\      /  F ield         | OpenFOAM: The Open Source CFD Toolbox           |
|  \\    /   O peration     | Version:  v1912                                 |
|   \\  /    A nd           | Website:  www.openfoam.com                      |
|    \\/     M anipulation  |                                                 |
\*---------------------------------------------------------------------------*/
FoamFile
{
    version     2.0;
    format      ascii;
    class       volScalarField;
    location    "0.43";
    object      p;
}
// * * * * * * * * * * * * * * * * * * * * * * * * * * * * * * * * * * * * * //

dimensions      [0 2 -2 0 0 0 0];


internalField   nonuniform List<scalar> 
6600
(
588.771
584.305
582.054
580.669
580.042
579.813
579.633
579.508
579.526
579.74
580.19
580.896
581.791
582.83
584.14
585.751
587.595
589.581
591.66
593.865
596.225
598.669
601.091
603.611
606.046
608.424
610.743
612.839
614.24
615.304
615.87
615.617
614.023
610.793
605.566
598.067
588.104
574.976
558.214
537.252
511.252
479.334
440.872
394.821
340.572
276.894
203.797
120.303
22.3823
-85.151
586.182
581.85
580.505
579.289
578.454
577.987
577.61
577.341
577.257
577.37
577.678
578.185
578.875
579.692
580.639
581.796
583.163
584.766
586.463
588.164
589.853
591.543
593.081
594.587
596.061
597.337
598.325
599.028
598.998
598.14
596.641
594.124
590.092
584.082
575.855
565.045
551.514
534.338
513.049
487.319
456.244
418.849
374.704
322.394
261.244
190.165
109.25
18.4658
-84.9242
-196.691
582.97
578.788
578.456
577.269
576.378
575.741
575.224
574.903
574.755
574.831
575.083
575.439
575.906
576.537
577.306
578.15
579.044
579.92
580.98
582.127
583.228
584.257
585.177
585.691
586.009
586.12
585.832
585.025
583.308
580.428
576.504
571.351
564.407
555.377
543.822
529.493
512.051
490.553
464.664
433.953
397.628
354.648
304.392
245.874
178.459
100.957
13.3423
-83.4108
-188.831
-298.668
579.461
575.443
575.793
574.277
573.573
572.85
572.214
571.825
571.648
571.62
571.731
571.935
572.221
572.576
573.014
573.524
574.157
574.662
575.072
575.452
575.755
575.899
576.032
575.797
575.023
573.658
571.714
569.11
565.604
560.599
554.265
546.31
536.408
524.156
509.201
491.141
469.545
443.681
413.04
377.267
335.609
287.255
231.552
167.587
94.6471
11.7726
-80.9154
-181.255
-286.571
-391.598
575.816
571.882
572.508
570.471
569.965
569.154
568.526
568.039
567.761
567.598
567.503
567.447
567.503
567.609
567.702
567.734
567.696
567.732
567.598
567.356
566.923
566.22
565.048
563.639
561.744
559.145
555.557
550.914
545.222
538.106
529.334
518.47
505.46
489.943
471.557
449.698
423.874
393.691
358.679
318.268
271.823
218.567
157.987
89.6703
12.8873
-73.3994
-168.976
-271.267
-375.294
-473.853
571.958
567.976
568.671
566.33
565.839
564.958
564.304
563.752
563.26
562.828
562.45
562.083
561.732
561.396
561.067
560.732
560.228
559.566
558.644
557.502
556.139
554.523
552.39
549.649
546.127
541.863
536.62
530.139
522.156
512.605
501.196
487.726
471.823
453.166
431.311
405.779
376.178
342.096
303.027
258.534
208.023
150.983
86.9846
15.5389
-63.7345
-151.655
-248.195
-350.645
-452.02
-542.228
567.7
563.693
564.418
561.988
561.544
560.525
559.76
559.078
558.401
557.695
556.991
556.277
555.51
554.669
553.682
552.572
551.371
550.007
548.39
546.39
543.908
540.885
537.46
533.373
528.451
522.512
515.406
506.947
496.901
484.997
471.138
454.868
436.081
414.338
389.201
360.34
327.377
289.97
247.665
199.944
146.418
86.6458
20.4065
-52.5093
-132.519
-220.328
-316.191
-417.542
-514.758
-594.101
563.042
559.152
559.778
557.34
556.851
555.683
554.808
553.91
552.981
552.05
551.061
549.982
548.794
547.452
545.946
544.187
542.08
539.698
537.019
534.023
530.565
526.426
521.592
515.832
509.134
501.361
492.305
481.827
469.604
455.533
439.392
420.748
399.221
374.575
346.64
315.02
279.372
239.284
194.415
144.454
88.9909
27.7933
-39.3318
-112.608
-192.184
-278.566
-371.954
-469.97
-561.14
-627.722
557.982
554.422
554.637
552.201
551.603
550.263
549.266
548.202
547.051
545.835
544.519
543.063
541.431
539.542
537.384
534.964
532.205
528.999
525.298
521.047
516.195
510.71
504.414
497.227
488.994
479.471
468.498
455.995
441.784
425.539
406.87
385.808
361.975
335.049
304.765
270.909
233.148
191.192
144.678
93.3672
37.1252
-24.3224
-91.0598
-163.19
-241.029
-325.073
-414.944
-507.574
-591.242
-643.723
552.434
548.884
549.205
546.626
546.006
544.429
543.239
541.912
540.477
538.92
537.191
535.273
533.13
530.754
528.051
524.903
521.36
517.281
512.67
507.443
501.532
494.783
486.952
478.001
467.924
456.664
443.992
429.588
413.345
395.068
374.643
351.555
325.561
296.742
264.794
229.352
190.21
147.09
99.8515
48.2597
-7.92029
-68.685
-134.076
-204.146
-279.043
-359.313
-444.554
-530.602
-605.153
-643.961
546.173
542.965
543.363
540.788
540.231
538.402
537.047
535.388
533.574
531.587
529.371
526.912
524.153
521.064
517.658
513.834
509.51
504.632
499.051
492.656
485.481
477.486
468.568
458.504
447.029
434.134
419.747
403.708
385.714
365.521
343.097
318.403
291.115
260.869
227.532
191.04
151.145
107.664
60.3661
9.26634
-45.6446
-104.55
-167.471
-234.455
-305.572
-381.168
-461.401
-540.743
-605.768
-632.653
539.565
536.924
537.052
534.827
534.162
532.11
530.627
528.589
526.426
524.015
521.3
518.261
514.896
511.115
506.873
502.189
496.922
491.103
484.686
477.498
469.295
460.051
449.713
438.249
425.565
411.399
395.551
377.96
358.605
337.256
313.608
287.49
258.912
227.775
193.816
156.834
116.789
73.5841
27.2049
-22.5936
-75.8461
-132.346
-192.028
-254.905
-321.162
-391.2
-464.748
-537.278
-595.456
-614.083
532.84
530.794
530.739
528.818
527.896
525.752
524.087
521.692
519.221
516.415
513.233
509.652
505.638
501.185
496.203
490.683
484.579
477.708
470.064
461.694
452.494
442.337
431.094
418.598
404.709
389.42
372.528
353.791
333.051
310.325
285.645
258.836
229.622
197.854
163.606
126.782
87.23
44.9294
-0.201939
-47.9435
-98.2948
-151.403
-207.163
-265.383
-325.8
-389.645
-455.308
-518.81
-568.427
-585.608
526.37
524.803
524.617
522.559
521.647
519.397
517.524
514.864
512.135
508.952
505.348
501.328
496.778
491.675
485.983
479.624
472.653
465.03
456.602
447.217
436.836
425.39
412.846
399.204
384.275
367.876
349.892
330.301
308.972
285.689
260.344
232.887
203.277
171.511
137.459
101.127
62.5542
21.6996
-21.33
-66.6754
-114.202
-163.577
-214.631
-267.227
-321.209
-377.08
-432.596
-483.385
-519.101
-535.148
520.116
519
518.651
516.841
515.754
513.339
511.221
508.348
505.402
501.863
497.865
493.38
488.359
482.731
476.466
469.491
461.661
453.015
443.594
433.352
422.193
410
396.581
381.826
365.843
348.605
329.892
309.41
287.175
263.199
237.418
209.767
180.164
148.547
115.069
79.679
42.39
3.29456
-37.5927
-79.8947
-123.571
-168.712
-214.949
-261.552
-308.961
-355.974
-399.865
-434.267
-450.726
-461.634
514.356
513.633
513.184
511.519
510.256
507.938
505.664
502.514
499.247
495.369
491.066
486.149
480.636
474.492
467.632
460.093
451.831
442.661
432.47
421.266
409.045
395.828
381.594
366.1
349.173
330.862
311.286
290.368
267.84
243.616
217.647
189.913
160.44
129.321
96.5202
62.201
26.4101
-10.7881
-49.1421
-88.6111
-128.931
-169.752
-210.709
-251.168
-291.099
-328.49
-360.933
-383.072
-388.261
-393.064
509.285
508.885
508.435
506.948
505.521
503.259
500.813
497.62
494.028
489.8
485.198
479.865
473.94
467.422
460.048
451.804
442.772
432.944
422.233
410.544
397.797
383.882
368.835
352.628
335.223
316.44
296.134
274.348
251.19
226.598
200.538
172.995
143.874
113.224
81.2404
47.9691
13.6753
-21.5785
-57.751
-94.3298
-130.965
-167.679
-203.915
-239.635
-272.58
-301.12
-322.667
-334.697
-342.935
-344.759
505.211
504.961
504.49
503.136
501.657
499.399
496.839
493.619
489.908
485.523
480.517
474.786
468.324
461.712
453.809
445.193
435.67
425.199
413.742
401.292
387.851
373.368
357.782
340.959
322.829
303.49
282.974
261.071
237.702
212.879
186.624
158.947
130.053
99.9844
68.759
36.553
3.37034
-30.2617
-64.066
-98.1473
-132.224
-165.879
-198.215
-228.786
-256.075
-277.493
-290.656
-295.062
-303.487
-306.409
502.073
501.969
501.422
500.132
498.712
496.492
493.898
490.629
486.844
482.39
477.285
471.401
464.716
457.318
448.95
439.744
429.738
418.893
406.997
394.069
380.066
364.96
348.777
331.513
313.108
293.36
272.212
249.817
226.171
201.321
175.189
147.772
118.971
89.0419
58.2501
26.691
-5.1913
-37.5579
-70.2839
-102.684
-134.358
-164.8
-194.806
-222.282
-245.447
-261.497
-267.166
-270.224
-273.397
-278.583
499.865
499.703
499.281
498.015
496.63
494.544
492.063
488.861
485.064
480.544
475.334
469.364
462.583
454.963
446.355
436.694
426.008
414.678
402.018
388.413
373.836
358.225
341.502
323.671
304.697
284.707
263.679
241.283
217.467
192.333
165.981
138.429
109.812
80.1757
49.6678
18.4617
-13.4012
-44.9717
-76.0054
-107.153
-138.254
-167.908
-194.621
-219.1
-239.457
-251.108
-253.312
-257.443
-257.391
-261.355
498.299
498.082
497.899
496.757
495.592
493.553
491.244
488.202
484.586
480.17
474.973
468.914
461.961
454.074
445.238
435.37
424.405
412.445
399.387
385.161
369.883
353.611
336.357
318.045
298.562
277.926
256.242
233.588
209.897
184.957
158.77
131.285
102.476
72.5568
41.8914
10.71
-20.6439
-52.3099
-83.8514
-114.796
-144.957
-172.934
-198.324
-220.842
-236.758
-241.648
-244.126
-245.096
-247.437
-248.947
497.498
497.093
497.285
496.162
495.339
493.485
491.494
488.604
485.196
480.967
475.965
470.067
463.203
455.275
446.253
436.124
424.795
412.275
398.603
383.862
367.891
350.862
332.845
313.826
293.789
272.894
250.983
228.004
203.902
178.899
152.742
125.336
96.6295
66.5843
35.4637
3.70921
-28.5333
-60.5966
-91.9596
-122.895
-153.017
-179.881
-202.677
-220.568
-231.359
-234.237
-236.928
-236.606
-240.239
-240.94
497.21
496.617
497.084
496.078
495.603
494.01
492.501
489.978
486.92
482.946
478.174
472.426
465.66
457.806
448.775
438.57
427.119
414.336
400.197
384.79
368.117
350.396
331.431
311.635
290.83
268.948
246.371
223.072
198.912
173.763
147.71
120.497
91.775
61.4639
29.6893
-3.03298
-35.9789
-69.3402
-102.579
-134.139
-163.292
-189.116
-210.174
-221.341
-220.916
-225.353
-227.488
-231.061
-234.718
-235.815
497.105
496.455
497.19
496.471
496.394
494.787
494.052
491.945
489.323
485.813
481.527
476.176
469.693
462.002
452.992
442.59
430.926
417.906
403.409
387.455
370.109
351.559
331.653
310.716
289.003
266.492
243.141
219.011
194.433
169.208
143.214
116.218
87.9242
57.6933
25.3659
-8.54553
-43.4029
-78.5416
-113.873
-147.33
-176.109
-200.357
-217.873
-224.384
-221.819
-220.185
-222.566
-227.58
-231.593
-232.929
496.772
496.581
497.119
496.952
497.157
496.367
495.727
494.247
492.195
489.213
485.398
480.544
474.508
467.216
458.56
448.312
436.494
423.225
408.41
391.993
374.013
354.568
333.748
311.778
288.649
264.864
240.451
215.659
190.204
164.597
138.687
112.155
84.3996
54.7162
22.151
-13.1922
-49.9222
-87.694
-125.752
-161.702
-193.726
-217.96
-228.045
-222.164
-224.881
-221.864
-223.329
-225.816
-228.49
-229.994
495.879
496.958
496.502
497.435
497.732
497.591
497.386
496.518
495.166
492.934
489.797
485.718
480.135
473.248
464.924
455.022
443.326
429.871
414.728
397.805
379.147
358.724
336.688
313.646
289.392
264.146
238.336
212.255
186.066
159.706
133.503
107.44
80.8471
52.5418
20.9458
-15.0866
-54.7878
-96.6335
-138.167
-177.47
-211.765
-235.566
-241.423
-235.11
-226.485
-225.269
-224.316
-223.594
-223.908
-224.683
493.713
497.457
495.54
497.631
497.929
498.387
498.772
498.506
497.813
496.336
494.039
490.729
486.102
479.915
472.12
462.609
451.293
437.951
422.576
405.256
385.977
364.819
341.733
316.928
291.127
264.046
236.643
208.837
181.346
154.089
127.442
101.442
76.06
49.9804
20.6613
-14.336
-55.3049
-101.028
-148.544
-194.737
-233.537
-252.52
-245.815
-245.918
-235.706
-230.14
-224.256
-219.845
-217.561
-217.148
489.725
497.551
493.838
497.257
497.725
498.723
499.625
500.124
500.26
499.591
498.119
495.645
491.95
486.615
479.574
470.562
459.651
446.67
431.237
413.369
393.312
371.295
347.157
321.338
293.603
264.659
234.895
205.193
175.745
147.252
119.638
93.4893
69.1576
45.9009
21.3772
-10.0253
-51.6068
-100.937
-155.417
-210.057
-251.68
-268.82
-261.251
-248.982
-242.186
-233.183
-223.753
-215.177
-209.584
-207.439
483.396
496.761
491.841
496.299
497.192
498.661
499.902
500.928
501.787
502.067
501.582
500.162
497.574
493.262
486.975
478.8
468.607
455.928
440.76
422.88
402.096
378.612
353.062
325.537
296.257
265.349
233.48
201.092
169.32
138.981
110.187
83.1248
58.9989
38.6278
20.3878
-3.04018
-39.0596
-91.3584
-158.537
-230.358
-273.686
-270.371
-278.08
-258.219
-251.388
-240.039
-227.442
-214.343
-204.686
-200.047
453.213
489.568
489.297
494.408
496.119
498.295
500.064
501.554
502.922
503.926
504.38
503.694
501.631
498.442
493.599
486.562
476.817
464.058
449.11
431.32
410.057
385.861
359.359
329.763
298.266
264.786
231.056
195.609
160.868
127.962
97.811
69.3835
44.4232
26.4353
14.8635
3.08185
-18.7751
-62.9682
-129.951
-204.085
-270.732
-278.474
-281.017
-279.809
-275.851
-265.496
-248.85
-229.747
-214.105
-205.506
547.621
543.203
541.115
539.862
538.84
537.997
537.213
536.567
536.035
535.482
534.92
534.269
533.612
532.903
532.175
531.551
530.896
529.994
528.936
527.957
527.052
526.016
524.946
523.691
522.085
520.258
518.419
516.417
514.15
511.516
508.369
504.942
501.005
496.31
490.594
483.445
474.569
463.752
450.69
434.854
415.66
392.449
364.544
331.263
291.91
245.565
191.705
131.209
56.4667
-22.7656
544.73
540.496
538.812
537.327
535.981
534.821
533.838
532.939
532.032
531.04
530.017
529.011
527.976
526.925
525.757
524.492
523.2
521.687
519.822
517.784
515.769
513.649
511.288
508.82
506.189
503.175
499.667
495.791
491.526
486.769
481.259
474.932
467.917
459.996
450.864
440.085
427.189
411.875
393.892
372.822
348.037
318.826
284.458
244.217
197.51
143.337
81.0583
12.3832
-68.9401
-156.237
541.003
536.866
535.52
533.796
532.298
530.968
529.835
528.638
527.385
526.072
524.603
523.088
521.481
519.824
518.11
516.232
514.084
511.789
509.275
506.467
503.331
499.992
496.359
492.277
487.873
483.372
478.353
472.617
466.119
459.01
451.171
442.192
431.969
420.451
407.5
392.763
375.692
355.81
332.8
306.262
275.681
240.296
199.399
152.31
98.4894
37.0675
-32.7084
-109.363
-194.445
-284.527
536.768
532.603
531.583
529.783
528.223
526.803
525.392
523.926
522.312
520.683
518.961
517.066
514.984
512.657
510.108
507.506
504.642
501.399
497.891
494.11
489.908
485.198
480.136
474.715
468.613
461.928
454.796
447.064
438.484
428.854
418.172
406.346
393.063
377.992
361.02
341.986
320.444
295.861
267.8
235.788
199.419
157.981
110.749
57.2028
-3.16288
-71.3147
-147.706
-230.509
-318.104
-406.81
532.205
527.988
527.231
525.43
523.855
522.258
520.527
518.818
517
515.046
512.952
510.626
508.058
505.229
502.013
498.404
494.686
490.642
486.073
481.097
475.78
469.886
463.188
455.886
448.023
439.376
429.942
419.681
408.612
396.428
382.93
367.951
351.308
332.727
311.81
288.466
262.271
232.847
199.75
162.429
120.434
73.1711
20.1776
-39.1179
-105.236
-178.923
-260.413
-347.606
-437.149
-522.801
527.264
523.132
522.525
520.547
518.948
517.192
515.297
513.236
511.06
508.772
506.302
503.522
500.387
496.939
493.186
488.853
484.034
478.883
473.249
466.954
460.045
452.755
444.849
435.9
426.059
415.308
403.618
390.885
377.028
361.902
345.305
327.115
307.078
284.841
260.059
232.447
201.737
167.583
129.615
87.2735
40.0674
-12.3048
-70.31
-134.444
-205.131
-282.917
-368.056
-458.335
-548.99
-630.832
522.083
518.061
517.589
515.195
513.443
511.555
509.503
507.226
504.707
501.882
498.79
495.422
491.67
487.47
482.837
477.842
472.399
465.959
459.042
451.647
443.439
434.19
424.32
413.663
402.005
389.209
375.212
359.923
343.392
325.353
305.611
283.999
260.312
234.321
205.688
174.123
139.264
100.765
58.3142
11.5103
-40.1436
-96.8854
-158.995
-226.871
-300.799
-381.294
-468.785
-561.137
-652.01
-728.504
516.788
512.796
512.453
509.529
507.824
505.715
503.291
500.613
497.741
494.545
490.847
486.719
482.201
477.284
471.831
465.668
459.031
451.59
443.258
434.186
424.599
413.996
402.258
389.534
375.752
360.786
344.547
326.75
307.433
286.405
263.545
238.697
211.595
181.982
149.642
114.287
75.5797
33.2014
-13.133
-63.7574
-118.959
-179.008
-244.215
-314.792
-390.848
-472.824
-561.37
-654.347
-743.871
-813.113
511.13
507.388
506.936
503.865
502.342
499.77
497.091
494.055
490.597
486.778
482.518
477.708
472.273
466.285
459.864
452.762
444.812
436.152
426.681
416.094
404.456
392.02
378.437
363.647
347.673
330.322
311.553
291.366
269.403
245.58
219.702
191.564
161.078
128.096
92.3791
53.6854
11.6903
-33.9649
-83.5114
-137.122
-195.064
-257.546
-324.792
-396.97
-474.171
-556.685
-645.056
-737.038
-823.389
-882.566
505.208
501.979
501.371
498.373
496.681
493.866
490.8
487.433
483.584
479.162
474.201
468.708
462.579
455.631
447.831
439.435
430.211
420.048
409.013
397.028
383.742
369.392
353.87
336.971
318.68
298.989
277.651
254.683
229.947
203.312
174.598
143.687
110.311
74.2786
35.4583
-6.34432
-51.3136
-99.6338
-151.582
-207.415
-267.275
-331.331
-399.73
-472.613
-550.059
-632.237
-718.873
-807.955
-889.527
-937.861
499.433
496.729
496.085
493.122
491.131
488.135
484.811
480.943
476.586
471.673
466.068
459.761
452.707
444.995
436.372
426.686
416.173
404.663
392.015
378.225
363.227
346.825
329.131
310.082
289.485
267.364
243.649
218.117
190.731
161.387
129.857
96.0257
59.8528
21.1587
-20.2435
-64.503
-111.785
-162.285
-216.136
-273.5
-334.487
-399.223
-467.925
-540.622
-617.345
-698.352
-783.085
-868.194
-943.292
-981.443
494.134
491.939
491.033
488.269
486.01
482.651
479.053
474.875
470.033
464.551
458.418
451.524
443.703
434.906
425.272
414.52
402.751
389.839
375.71
360.333
343.692
325.534
305.826
284.571
261.734
237.116
210.763
182.6
152.534
120.491
86.4487
50.2419
11.5885
-29.5625
-73.2458
-119.604
-168.773
-220.843
-275.947
-334.196
-395.767
-460.727
-529.007
-600.763
-675.993
-754.91
-836.586
-917.037
-985.205
-1015.23
489.27
487.508
486.414
483.767
481.466
477.93
473.964
469.422
464.185
458.142
451.297
443.669
435.312
425.905
415.395
403.797
390.869
376.663
361.116
344.066
325.548
305.523
283.923
260.622
235.625
208.841
180.161
149.57
117.068
82.5541
45.8799
7.09819
-33.7952
-76.9857
-122.618
-170.71
-221.3
-274.481
-330.362
-389.09
-450.567
-514.869
-582.195
-652.44
-725.656
-801.829
-880.229
-956.272
-1018.27
-1040.64
485.366
483.718
482.7
480.038
477.482
473.915
469.848
464.986
459.393
453.04
445.817
437.578
428.281
418.059
406.713
394.305
380.456
365.156
348.433
330.154
310.233
288.591
265.128
239.804
212.592
183.516
152.548
119.603
84.6317
47.7094
8.88699
-31.9905
-75.0427
-120.199
-167.453
-216.905
-268.612
-322.644
-378.963
-437.504
-498.549
-562.029
-627.736
-695.837
-766.567
-839.569
-913.464
-984.053
-1039.18
-1056.74
482.024
480.881
479.851
477.355
474.733
470.985
466.826
461.835
455.957
449.22
441.641
433.143
423.54
412.695
400.647
387.295
372.632
356.396
338.47
318.849
297.467
274.319
249.279
222.266
193.205
162.065
128.909
93.7762
56.6817
17.5113
-23.7271
-66.8322
-111.769
-158.644
-207.434
-258.122
-310.749
-365.2
-421.549
-479.908
-540.004
-602.017
-665.996
-731.614
-798.847
-867.928
-935.762
-998.096
-1043.36
-1058.9
480.049
479.19
478.026
475.561
473.045
469.374
465.132
460.134
454.285
447.493
439.645
430.683
420.766
409.577
397.172
383.168
367.711
350.769
332.101
311.624
289.102
264.521
237.861
209.093
178.207
145.139
109.889
72.5008
33.0435
-8.32869
-51.5363
-96.6167
-143.484
-192.044
-242.271
-294.063
-347.325
-402.225
-458.633
-516.321
-575.469
-635.772
-697.295
-760.377
-824.22
-887.552
-947.542
-997.79
-1029
-1042.34
479.3
478.491
477.408
475.044
472.476
468.949
464.875
459.893
454.06
447.386
439.756
430.972
420.879
409.564
396.867
382.618
366.667
349.014
329.52
308.143
284.75
259.193
231.321
201.069
168.431
133.476
96.2129
56.7477
15.1567
-28.5205
-74.1081
-121.342
-170.164
-220.448
-272.026
-324.958
-379.248
-434.483
-490.649
-547.812
-605.683
-664.423
-723.538
-782.843
-842.856
-900.74
-951.438
-988.767
-1005.35
-1015.03
479.752
478.917
477.686
475.605
473.281
469.877
466.038
461.331
455.738
449.191
441.652
433.131
423.272
412.182
399.561
385.444
369.527
351.704
331.939
309.992
285.768
259.23
230.228
198.712
164.563
127.771
88.4687
46.7444
2.77539
-43.2589
-91.1854
-140.772
-191.718
-243.879
-297.161
-351.345
-406.233
-462.019
-518.506
-575.392
-632.454
-689.215
-746.137
-802.535
-857.383
-908.262
-953.168
-984.503
-995.565
-998.769
480.836
480.185
479.02
477.125
475.044
472.032
468.441
464.072
458.939
452.935
445.838
437.597
428.273
417.629
405.378
391.527
375.87
358.217
338.469
316.509
292.054
264.986
235.194
202.572
167.082
128.696
87.411
43.4097
-3.06062
-51.7352
-102.319
-154.513
-208.076
-262.647
-317.877
-373.682
-430.08
-486.675
-543.244
-599.677
-656.016
-712.158
-767.338
-821.576
-873.31
-919.902
-956.64
-980.229
-992.083
-991.444
482.953
482.168
481.139
479.519
477.685
475.134
472.09
468.199
463.497
457.989
451.594
444.075
435.343
425.316
413.911
400.789
385.862
368.933
349.66
327.938
303.652
276.424
246.177
212.818
176.194
136.351
93.2846
47.1117
-1.97575
-53.6802
-107.539
-162.993
-219.522
-276.748
-334.43
-392.369
-450.287
-508.052
-565.674
-623.05
-679.414
-734.911
-789.25
-841.854
-890.096
-933.286
-966.111
-979.02
-985.329
-985.974
484.96
484.425
483.703
482.486
481.1
478.978
476.491
473.239
469.277
464.454
458.741
452.163
444.446
435.339
424.802
412.565
398.576
382.797
364.747
343.963
320.316
293.533
263.359
229.639
192.299
151.13
106.193
57.691
5.96262
-48.6838
-105.901
-165.124
-225.603
-286.652
-347.692
-408.385
-468.586
-528.4
-587.261
-644.901
-702.026
-757.865
-812.283
-863.013
-909.581
-946.456
-969.931
-982.603
-982.882
-984.061
487.335
486.894
486.394
485.823
484.985
483.41
481.464
478.814
475.606
471.692
466.879
461.151
454.491
446.683
437.532
426.928
414.343
399.615
382.975
363.6
341.046
315.199
285.785
252.385
214.892
173.177
126.977
76.3453
21.5669
-36.7622
-98.0803
-161.585
-226.551
-292.068
-357.186
-421.386
-484.839
-546.896
-607.715
-667.513
-725.858
-782.188
-835.313
-884.492
-927.041
-960.465
-975.199
-982.172
-982.933
-983.325
489.031
489.152
489.068
489.097
488.713
487.858
486.534
484.567
482.134
479.092
475.355
470.789
465.331
458.902
451.265
442.325
431.906
419.195
404.056
386.327
365.56
341.175
312.909
280.448
243.267
201.195
154.177
102.023
44.9256
-16.8159
-82.4129
-151.18
-221.789
-292.848
-363.454
-432.855
-499.946
-565.386
-628.857
-689.911
-748.966
-805.967
-858.365
-905.852
-945.369
-967.708
-981.267
-982.766
-983.746
-983.64
489.781
491.102
491.093
491.891
492.235
492.03
491.488
490.278
488.585
486.333
483.548
480.156
476.013
471.038
465.147
458.02
449.649
439.319
426.313
410.837
392.474
370.524
344.327
313.434
277.496
235.949
188.582
135.089
75.523
10.3149
-59.9729
-134.115
-210.887
-289.028
-366.435
-441.26
-513.839
-583.517
-649.843
-713.297
-774.291
-830.064
-881.904
-926.914
-958.692
-975.786
-981.915
-984.032
-985.008
-985.03
488.785
492.205
492.143
494.24
495.189
495.616
495.916
495.559
494.691
493.237
491.332
488.964
486.095
482.552
478.271
473.002
466.561
458.818
448.811
436.081
420.411
401.356
378.065
349.66
315.681
275.652
229.007
175.38
114.317
46.022
-28.7657
-109.047
-193.503
-279.726
-365.294
-448.725
-527.865
-602.237
-673.377
-739.802
-800.375
-856.792
-905.937
-945.301
-967.839
-980.864
-984.123
-986.487
-987.626
-987.857
486.135
491.789
492.267
495.804
497.38
498.647
499.623
500.112
500.269
499.633
498.559
497.043
495.159
492.942
490.221
486.87
482.54
477.069
470.006
460.624
448.457
432.97
413.289
388.471
357.505
319.808
274.754
221.734
160.089
89.3814
10.1388
-76.5361
-168.551
-263.897
-360.235
-453.402
-541.192
-623.537
-698.39
-766.787
-828.283
-882.261
-929.305
-959.256
-978.44
-985.551
-989.353
-991.113
-991.911
-992.107
481.372
490.416
490.659
496.226
498.832
501.1
502.932
504.1
504.943
505.123
504.741
504.012
503.056
501.916
500.518
498.833
496.628
493.531
489.303
483.443
475.129
463.62
448.198
427.844
401.141
367.085
324.819
273.606
212.614
140.937
58.1096
-34.7335
-135.808
-242.617
-350.573
-456.188
-556.68
-647.597
-728.569
-799.278
-861.73
-913.416
-949.039
-973.066
-985.334
-991.274
-994.613
-996.342
-997.19
-997.147
474.192
487.8
488.019
495.768
499.63
503.095
505.843
507.604
508.864
509.708
509.959
509.838
509.551
509.303
509.092
508.908
508.698
508.057
506.664
504.088
499.825
492.763
482.172
466.914
445.469
416.384
378.26
329.898
270.769
199.045
113.995
15.0957
-95.4439
-213.93
-336.833
-458.21
-572.972
-676.552
-765.509
-838.096
-896.612
-942.058
-968.322
-982.361
-990.033
-996.178
-999.999
-1001.86
-1002.54
-1002.42
462.99
483.953
484.913
494.195
499.705
504.369
508.075
510.702
512.608
513.667
514.361
514.892
515.236
515.549
516.069
516.984
518.083
519.36
520.604
521.022
520.376
518.215
512.902
503.193
487.836
464.963
432.653
389.531
333.513
263.063
176.682
73.3759
-46.9762
-180.102
-319.853
-458.155
-591.051
-709.223
-807.615
-881.439
-941.601
-973.022
-985.876
-992.175
-998.484
-1004.28
-1007.45
-1008.66
-1008.99
-1009.06
437.259
473.148
480.424
491.575
498.725
504.812
509.855
513.021
515.415
517.122
517.829
518.256
519.119
520.038
521.428
523.09
525.263
528.547
532.909
537.114
538.959
539.917
539.999
536.476
527.358
510.978
485.269
447.976
396.551
329.567
243.393
135.943
5.8532
-143.614
-301.964
-463.358
-615.523
-749.107
-851.434
-940.953
-986.356
-1005.75
-1008.49
-1010.48
-1013.28
-1016.43
-1017.92
-1016.95
-1015.99
-1016.98
432.491
460.418
474.934
487.859
498.024
506.623
512.799
517.605
520.367
522.271
522.973
522.518
522.102
522.205
523.422
525.637
528.801
533.093
539.145
547.182
553.516
557.966
562.315
565.112
562.911
552.593
532.638
500.298
453.888
390.559
306.389
196.55
56.5191
-111.553
-295.492
-485.668
-666.595
-819.278
-943.643
-1035.29
-1063.02
-1058.76
-1050.62
-1043.11
-1039.12
-1037
-1033.09
-1027.95
-1024.82
-1026.3
442.873
463.39
478.109
490.681
502.089
512.183
518.581
523.528
526.776
527.95
527.831
527.01
526.319
525.977
526.95
529.826
533.933
540.484
549.371
559.011
568.747
577.217
586.23
593.718
596.432
590.007
571.975
541.193
494.309
427.541
335.786
214.828
57.345
-140.834
-366.697
-591.345
-784.222
-941.557
-1063.28
-1115.21
-1127.64
-1120.3
-1107.83
-1093.63
-1079.7
-1066.29
-1052.35
-1040.53
-1034.94
-1037.32
456.456
475.304
488.185
501.219
512.251
520.254
526.671
530.731
533.067
533.767
532.887
531.344
530.43
530.793
532.343
536.382
543.143
552.302
562.947
574.91
589.636
601.377
613.59
625.332
629.593
624.699
605.999
571.206
517.616
441.319
336.145
194.471
5.52074
-230.787
-500.893
-747.716
-938.663
-1082.92
-1163.1
-1201.26
-1211.8
-1203.93
-1186.82
-1162.12
-1133.35
-1105.6
-1079.35
-1059.22
-1050.17
-1052.22
467.232
486.934
502.181
515.156
524.897
532.445
537.497
539.573
539.491
538.486
536.265
534.108
532.314
532.806
536.69
543.192
551.577
563.013
580.252
597.061
612.671
630.524
647.286
662.575
670.375
665.977
646.074
605.298
541.669
449.569
320.697
148.339
-71.4617
-347.052
-651.86
-912.329
-1095.89
-1214.35
-1280.06
-1316.22
-1324.5
-1313.42
-1284.68
-1244.99
-1201.5
-1156.82
-1117.06
-1087.37
-1072.2
-1071.07
477.443
498.308
515.002
529.293
539.74
545.642
547.701
548.163
546.314
542.267
537.517
532.885
529.98
530.281
534.382
543.146
557.853
575.99
594.342
610.992
631.67
657.595
681.673
702.093
715.566
712.237
689.312
643.244
571.922
468.596
313.556
101.08
-162.986
-481.632
-814.696
-1086.44
-1254.71
-1358.28
-1427.64
-1463.4
-1465.69
-1440.47
-1392.33
-1330.41
-1265.55
-1203.94
-1152.02
-1113.51
-1091.25
-1085.27
486.082
511.324
531.118
544.178
552.502
558.031
557.598
554.937
550.006
542.912
535.406
527.401
521.017
519.894
526.016
540.804
559.972
569.548
589.175
620.787
647.945
679.119
712.846
741.527
759.703
759.402
733.481
679.403
593.915
473.117
295.617
38.0003
-282.131
-633.518
-988.166
-1277.61
-1435.3
-1519.3
-1589.61
-1620.68
-1610.88
-1563.22
-1487.11
-1396.15
-1305.58
-1226.34
-1163.44
-1118.04
-1090.5
-1079.87
498.971
524.803
545.576
561.904
568.892
569.405
565.648
559.169
549.176
537.838
525.524
512.847
501.766
499.129
507.962
518.311
529.244
556.647
584.364
616.401
652.869
693.61
737.67
775.59
797.431
797.199
764.406
697.467
598.718
455.355
241.704
-56.5268
-411.955
-784.735
-1145.32
-1433
-1585.28
-1667.43
-1736.38
-1749.28
-1709.3
-1634.45
-1532.5
-1408.3
-1297.39
-1205.4
-1134.34
-1083.12
-1052.99
-1039.67
513.119
546.451
568.463
577.03
580.933
576.785
567.301
554.459
539.6
523.051
503.065
480.083
459.277
450.448
452.511
463.097
493.953
519.635
561.746
602.73
648.651
693.152
730.174
754.077
759.823
743.514
697.59
617.408
520.942
369.747
132.856
-175.23
-540.069
-903.217
-1244.55
-1516.75
-1673.29
-1757.6
-1800.1
-1786.78
-1719.35
-1616.09
-1488.33
-1354.09
-1233.19
-1133.98
-1058.15
-1004.26
-970.336
-954.01
522.681
569.251
577.232
580.191
583.449
572.475
557.631
538.796
515.435
488.059
455.736
415.799
369.342
343.965
363.65
383.9
446.542
501.666
528.822
566.917
606.103
641.774
665.275
668.688
649.293
604.577
532.113
432.467
304.55
133.383
-91.4412
-371.998
-689.925
-1005.16
-1298.6
-1530.96
-1675.53
-1744.37
-1753.25
-1706.76
-1613.98
-1492.03
-1358.31
-1224.94
-1106.82
-1010.36
-936.89
-884.413
-850.794
-833.419
510.463
554.355
558.538
560.172
563.952
547.894
527.98
501.473
469.703
427.995
369.022
286.099
200.392
174.506
233.37
311.735
360.45
411.212
451.459
487.226
518.808
536.669
533.113
505.55
452.864
373.527
266.48
132.04
-16.5352
-185.705
-386.513
-619.364
-868.863
-1108.35
-1321.05
-1487.09
-1584.88
-1615.53
-1590.3
-1519.65
-1414.9
-1290.53
-1161.95
-1044.07
-940.941
-856.089
-790.768
-742.554
-711.454
-694.8
464.52
505.198
505.016
518.91
513.937
496.734
473.616
439.242
391.391
322.053
222.836
82.3437
-39.0572
-43.3128
25.8
136.225
211.729
275.725
325.039
360.27
378.299
369.569
328.421
255.074
151.591
18.307
-132.165
-284.911
-429.132
-570.181
-719.461
-878.123
-1037.84
-1185.93
-1307.12
-1395.29
-1435.44
-1425.01
-1374.8
-1294.16
-1191.24
-1077.49
-965.221
-862.884
-773.787
-699.942
-642.114
-601.137
-574.508
-560.254
371.383
425.739
467.296
438.704
420.957
408.232
384.969
341.624
273.815
171.104
20.0544
-187.853
-379.408
-369.249
-292.962
-125.032
2.08159
98.7713