/*--------------------------------*- C++ -*----------------------------------*\
| =========                 |                                                 |
| \\      /  F ield         | OpenFOAM: The Open Source CFD Toolbox           |
|  \\    /   O peration     | Version:  v1912                                 |
|   \\  /    A nd           | Website:  www.openfoam.com                      |
|    \\/     M anipulation  |                                                 |
\*---------------------------------------------------------------------------*/
FoamFile
{
    version     2.0;
    format      ascii;
    class       surfaceScalarField;
    location    "0.43";
    object      phi;
}
// * * * * * * * * * * * * * * * * * * * * * * * * * * * * * * * * * * * * * //

dimensions      [0 3 -1 0 0 0 0];
oriented        oriented;


internalField   nonuniform List<scalar> 
13060
(
0.00599452
0.988136
-0.994131
0.0081063
0.944993
-0.947105
0.00930698
0.899041
-0.900242
0.00995582
0.855699
-0.856348
0.0102795
0.815144
-0.815468
0.0103787
0.777314
-0.777413
0.0104754
0.741235
-0.741332
0.0105719
0.706843
-0.70694
0.0107765
0.674041
-0.674245
0.0111641
0.642551
-0.642939
0.0117158
0.612518
-0.61307
0.0123133
0.583715
-0.584312
0.0129848
0.556032
-0.556703
0.0137193
0.529535
-0.530269
0.0144946
0.504252
-0.505028
0.0151848
0.480156
-0.480846
0.0156719
0.457255
-0.457742
0.0159824
0.435282
-0.435592
0.0163776
0.414161
-0.414556
0.0168157
0.394152
-0.39459
0.0171681
0.375179
-0.375532
0.0174248
0.35708
-0.357337
0.0175378
0.339969
-0.340082
0.0175486
0.323618
-0.323629
0.0175052
0.308178
-0.308135
0.0173611
0.293604
-0.29346
0.0169883
0.279764
-0.279392
0.0163475
0.266795
-0.266154
0.0155268
0.25459
-0.253769
0.0147172
0.242686
-0.241876
0.014028
0.231601
-0.230911
0.0132508
0.221259
-0.220481
0.0123971
0.211398
-0.210545
0.0114503
0.201986
-0.201039
0.0104448
0.193133
-0.192128
0.00934875
0.184744
-0.183647
0.00825209
0.176851
-0.175754
0.00730338
0.169483
-0.168535
0.00651023
0.162556
-0.161763
0.00565449
0.156035
-0.15518
0.00465992
0.14984
-0.148846
0.00352372
0.143977
-0.142841
0.00244869
0.138309
-0.137234
0.00150695
0.133124
-0.132182
0.000641797
0.128078
-0.127212
-0.000157296
0.123469
-0.12267
-0.00109986
0.11858
-0.117637
-0.00198157
0.114998
-0.114117
-0.00195451
0.106121
-0.106148
0.075106
-0.0770605
0.00625345
0.981883
0.00762806
0.943618
0.00813284
0.898536
0.00804784
0.855784
0.00764257
0.81555
0.00737613
0.77758
0.00716442
0.741447
0.00716727
0.70684
0.00732139
0.673886
0.00759097
0.642282
0.00799143
0.612118
0.00851496
0.583191
0.00910646
0.55544
0.00969257
0.528949
0.0102367
0.503708
0.010845
0.479548
0.0116531
0.456446
0.0123298
0.434605
0.0128108
0.41368
0.0131157
0.393847
0.0131801
0.375115
0.0130943
0.357166
0.0129605
0.340103
0.012682
0.323897
0.0122997
0.308561
0.0118278
0.294076
0.0113647
0.280228
0.0110184
0.267141
0.0106828
0.254925
0.0101329
0.243236
0.00951025
0.232223
0.00879715
0.221972
0.00798586
0.21221
0.00714489
0.202827
0.0063459
0.193932
0.0054705
0.185619
0.00463089
0.17769
0.00367118
0.170443
0.00261571
0.163612
0.00163069
0.15702
0.000756113
0.150715
4.94048e-05
0.144684
-0.000721867
0.13908
-0.00147106
0.133873
-0.00218395
0.12879
-0.00274076
0.124026
-0.00324322
0.119082
-0.00326641
0.115021
-0.00248587
0.105341
0.0726201
0.00586767
0.976015
0.00646542
0.943021
0.00641248
0.898589
0.00579442
0.856402
0.00517527
0.816169
0.00489873
0.777857
0.00484766
0.741498
0.00498374
0.706704
0.00524324
0.673627
0.0056098
0.641915
0.0060472
0.611681
0.00650139
0.582737
0.00697131
0.55497
0.00748768
0.528433
0.00794944
0.503246
0.00810163
0.479396
0.00809977
0.456448
0.00814446
0.43456
0.00828987
0.413534
0.00855982
0.393577
0.00879335
0.374881
0.00876738
0.357192
0.00861652
0.340254
0.0083824
0.324131
0.00816403
0.308779
0.00785017
0.29439
0.00725784
0.28082
0.00642359
0.267976
0.00550852
0.25584
0.00464472
0.244099
0.00382359
0.233045
0.00307479
0.222721
0.00234707
0.212937
0.00157314
0.203601
0.000745746
0.19476
-3.41302e-05
0.186399
-0.000896405
0.178553
-0.00154361
0.17109
-0.00202594
0.164094
-0.00253883
0.157533
-0.00311389
0.15129
-0.00374449
0.145315
-0.00421802
0.139554
-0.00450823
0.134163
-0.00469417
0.128976
-0.00481366
0.124146
-0.00489965
0.119168
-0.00432077
0.114443
-0.00300673
0.104027
0.0696134
0.00487046
0.971144
0.0047987
0.943092
0.00441023
0.898978
0.0035334
0.857279
0.00290183
0.8168
0.00241632
0.778342
0.00212456
0.741789
0.00204928
0.706779
0.00212397
0.673552
0.00227707
0.641762
0.00256932
0.611388
0.00294493
0.582362
0.00329583
0.554619
0.0035854
0.528143
0.00399522
0.502837
0.00456094
0.47883
0.00500565
0.456004
0.00523347
0.434332
0.00514147
0.413626
0.00492046
0.393798
0.00476841
0.375033
0.00455518
0.357405
0.00417725
0.340632
0.00362826
0.32468
0.00290514
0.309502
0.0022044
0.295091
0.00170051
0.281324
0.00130628
0.26837
0.00086369
0.256283
0.000290819
0.244672
-0.000299202
0.233635
-0.00100111
0.223422
-0.00178465
0.213721
-0.00253037
0.204347
-0.00323129
0.195461
-0.00391694
0.187084
-0.00454366
0.179179
-0.00525802
0.171805
-0.00599451
0.164831
-0.00657888
0.158118
-0.00697778
0.151689
-0.00720936
0.145546
-0.00735049
0.139695
-0.00741701
0.13423
-0.00733717
0.128897
-0.0070244
0.123833
-0.00658135
0.118725
-0.00554614
0.113407
-0.00365666
0.102137
0.0659568
0.00390972
0.967235
0.00307532
0.943927
0.00202072
0.900032
0.00116125
0.858139
0.000763716
0.817198
0.000437935
0.778668
0.000253707
0.741974
0.000174102
0.706859
0.000259701
0.673467
0.000434111
0.641588
0.000661706
0.611161
0.000929372
0.582094
0.00123251
0.554316
0.00144166
0.527934
0.00140368
0.502875
0.00121202
0.479022
0.00100944
0.456206
0.000980008
0.434362
0.000950965
0.413655
0.000810413
0.393939
0.000574019
0.37527
0.000278291
0.357701
-8.91782e-05
0.340999
-0.000386453
0.324977
-0.000717457
0.309833
-0.00130549
0.295679
-0.00219912
0.282217
-0.00322903
0.2694
-0.004199
0.257253
-0.00513482
0.245608
-0.00605724
0.234557
-0.00684018
0.224205
-0.00748248
0.214363
-0.00815503
0.205019
-0.00881897
0.196124
-0.00941314
0.187679
-0.00991543
0.179682
-0.0101994
0.172089
-0.0103374
0.164969
-0.0104548
0.158235
-0.0105399
0.151774
-0.0105471
0.145554
-0.0103863
0.139534
-0.0100033
0.133847
-0.00947199
0.128365
-0.00880598
0.123167
-0.00810689
0.118026
-0.00676249
0.112063
-0.00431002
0.0996847
0.0616467
0.0030897
0.964145
0.00184174
0.945175
0.00054646
0.901328
-0.000252606
0.858938
-0.00110746
0.818053
-0.00172657
0.779287
-0.00211297
0.74236
-0.00237515
0.707121
-0.00252062
0.673612
-0.00255474
0.641622
-0.00247999
0.611086
-0.00238508
0.581999
-0.00232926
0.554261
-0.00218857
0.527793
-0.00188811
0.502574
-0.00165092
0.478784
-0.00169863
0.456254
-0.001999
0.434662
-0.0024483
0.414104
-0.00290631
0.394397
-0.0033563
0.37572
-0.00389417
0.358238
-0.00463498
0.34174
-0.00559598
0.325938
-0.00655833
0.310796
-0.00729081
0.296411
-0.00783008
0.282757
-0.00835107
0.269921
-0.00889425
0.257796
-0.00941253
0.246126
-0.00992284
0.235067
-0.0105631
0.224846
-0.0112787
0.215079
-0.0118855
0.205626
-0.0123843
0.196623
-0.0128057
0.1881
-0.0131741
0.18005
-0.0135602
0.172475
-0.0138742
0.165283
-0.0139886
0.158349
-0.0138911
0.151676
-0.0136083
0.145271
-0.0132172
0.139143
-0.0126873
0.133317
-0.0119564
0.127634
-0.0109773
0.122188
-0.00985555
0.116905
-0.00806491
0.110272
-0.00498734
0.0966071
0.0566594
0.00235538
0.96179
0.000712471
0.946818
-0.000848083
0.902888
-0.00175257
0.859842
-0.00254112
0.818841
-0.00310816
0.779854
-0.00340179
0.742654
-0.00359175
0.707311
-0.00370854
0.673729
-0.00378396
0.641697
-0.00383498
0.611137
-0.00385627
0.58202
-0.00396813
0.554372
-0.00431979
0.528145
-0.0047858
0.50304
-0.00521437
0.479213
-0.00552126
0.456561
-0.00581704
0.434958
-0.00623241
0.41452
-0.00684812
0.395012
-0.00750128
0.376373
-0.00806031
0.358797
-0.00849015
0.34217
-0.00890855
0.326357
-0.00946472
0.311352
-0.0102942
0.297241
-0.0113083
0.283771
-0.0123684
0.270981
-0.0133793
0.258807
-0.014456
0.247203
-0.0154034
0.236015
-0.016086
0.225528
-0.0165759
0.215569
-0.017052
0.206102
-0.0174563
0.197028
-0.0177608
0.188404
-0.0179435
0.180233
-0.0179086
0.17244
-0.0177032
0.165077
-0.0174053
0.158051
-0.0170083
0.151279
-0.0164923
0.144755
-0.0158029
0.138453
-0.01494
0.132454
-0.0139713
0.126666
-0.0128671
0.121084
-0.0115273
0.115565
-0.00939991
0.108145
-0.00564049
0.0928477
0.0510189
0.00191577
0.959874
0.000209199
0.948524
-0.00136499
0.904462
-0.00255224
0.86103
-0.00359924
0.819888
-0.00435544
0.780611
-0.00485337
0.743152
-0.00524181
0.7077
-0.00551217
0.673999
-0.0057619
0.641947
-0.00603737
0.611412
-0.00631634
0.582299
-0.00650359
0.55456
-0.00664312
0.528284
-0.00685586
0.503253
-0.00725037
0.479608
-0.00787805
0.457188
-0.00858885
0.435669
-0.00923478
0.415166
-0.00995781
0.395735
-0.0107842
0.377199
-0.0117579
0.359771
-0.0129144
0.343326
-0.0141579
0.3276
-0.0152133
0.312407
-0.0159767
0.298004
-0.0166198
0.284414
-0.0171792
0.27154
-0.0176809
0.259309
-0.018062
0.247584
-0.0185138
0.236466
-0.0190803
0.226095
-0.0196564
0.216145
-0.0200969
0.206543
-0.0204122
0.197343
-0.0206133
0.188606
-0.0207002
0.18032
-0.0207392
0.172479
-0.0206632
0.165001
-0.0203958
0.157784
-0.0199253
0.150809
-0.0192607
0.14409
-0.0184523
0.137645
-0.0174819
0.131484
-0.0163462
0.12553
-0.0150983
0.119836
-0.013319
0.113785
-0.0107272
0.105553
-0.00629008
0.0884105
0.0447288
0.00190955
0.957964
-0.000258646
0.950692
-0.00209338
0.906297
-0.00326795
0.862204
-0.00415221
0.820773
-0.00475676
0.781215
-0.00519121
0.743586
-0.00557832
0.708087
-0.00597758
0.674398
-0.00629453
0.642264
-0.00661404
0.611732
-0.00706084
0.582746
-0.00768487
0.555184
-0.00842478
0.529024
-0.00918402
0.504012
-0.0098771
0.480301
-0.0105434
0.457855
-0.0113739
0.436499
-0.0123043
0.416096
-0.0132989
0.39673
-0.0142097
0.37811
-0.0149002
0.360462
-0.0154878
0.343914
-0.0161074
0.32822
-0.016953
0.313253
-0.018019
0.29907
-0.019171
0.285566
-0.0203136
0.272683
-0.0214276
0.260423
-0.0225216
0.248678
-0.0234005
0.237345
-0.0239258
0.22662
-0.0243142
0.216533
-0.0246234
0.206852
-0.0248138
0.197533
-0.0248741
0.188666
-0.0247967
0.180242
-0.024512
0.172194
-0.0240359
0.164525
-0.0234018
0.15715
-0.022643
0.15005
-0.0217807
0.143228
-0.0207868
0.136651
-0.0196537
0.130351
-0.0184025
0.124279
-0.0170992
0.118532
-0.0151197
0.111806
-0.0121542
0.102588
-0.00695183
0.0832081
0.037777
0.00180982
0.956155
-4.65726e-05
0.952549
-0.00170104
0.907951
-0.00306538
0.863568
-0.00415888
0.821866
-0.00498336
0.78204
-0.00566452
0.744267
-0.00627098
0.708693
-0.00685657
0.674984
-0.00747636
0.642884
-0.00805337
0.612309
-0.00856936
0.583262
-0.00905275
0.555667
-0.00959876
0.52957
-0.0103178
0.504731
-0.0112083
0.481191
-0.0121577
0.458804
-0.0131374
0.437479
-0.0141255
0.417084
-0.0152051
0.39781
-0.0165147
0.37942
-0.0179611
0.361908
-0.0194812
0.345434
-0.0208931
0.329632
-0.0220207
0.31438
-0.0228971
0.299946
-0.0236318
0.286301
-0.0242714
0.273322
-0.0247672
0.260918
-0.0251506
0.249062
-0.025594
0.237789
-0.0261359
0.227162
-0.0266158
0.217013
-0.0269125
0.207148
-0.0270977
0.197719
-0.0271504
0.188718
-0.027042
0.180134
-0.0268273
0.171979
-0.0264983
0.164196
-0.0260269
0.156679
-0.0253557
0.149379
-0.0244651
0.142337
-0.0234091
0.135595
-0.0222052
0.129147
-0.0208547
0.122928
-0.0192776
0.116955
-0.0170705
0.109599
-0.0136386
0.0991557
-0.00760175
0.0771712
0.0301752
0.00213362
0.954021
0.000102131
0.95458
-0.00155679
0.90961
-0.00275128
0.864763
-0.00363998
0.822755
-0.00439446
0.782794
-0.00506984
0.744943
-0.0057553
0.709379
-0.00642441
0.675653
-0.00709157
0.643551
-0.00790646
0.613124
-0.00884939
0.584205
-0.00986172
0.556679
-0.0108893
0.530598
-0.0118823
0.505724
-0.0128468
0.482156
-0.0139137
0.459871
-0.0151275
0.438693
-0.0164233
0.41838
-0.0176119
0.398998
-0.0186741
0.380482
-0.0195594
0.362793
-0.0203691
0.346244
-0.0213484
0.330611
-0.022563
0.315595
-0.0238503
0.301234
-0.0251534
0.287604
-0.026446
0.274615
-0.0276985
0.262171
-0.0288086
0.250172
-0.0296442
0.238624
-0.0301873
0.227705
-0.0305518
0.217378
-0.0308059
0.207403
-0.0308771
0.19779
-0.0307934
0.188635
-0.0305842
0.179925
-0.0301974
0.171593
-0.029588
0.163587
-0.0287644
0.155855
-0.0278342
0.148449
-0.0268463
0.141349
-0.0257544
0.134503
-0.0245351
0.127928
-0.0233293
0.121722
-0.0215748
0.115201
-0.0192103
0.107235
-0.0152263
0.0951716
-0.00840115
0.0703461
0.0217741
0.00220529
0.951816
0.000762886
0.956023
-0.000584405
0.910958
-0.00184352
0.866022
-0.00286088
0.823772
-0.00377135
0.783705
-0.00466973
0.745841
-0.00557801
0.710287
-0.00643917
0.676514
-0.00728407
0.644396
-0.00811189
0.613952
-0.00895963
0.585053
-0.00988291
0.557603
-0.0109011
0.531616
-0.0120594
0.506882
-0.0132768
0.483373
-0.0144605
0.461055
-0.0156437
0.439876
-0.0169538
0.41969
-0.0184379
0.400482
-0.0201647
0.382209
-0.0220127
0.364641
-0.0237595
0.347991
-0.0252675
0.332119
-0.0265281
0.316856
-0.0275887
0.302294
-0.028484
0.288499
-0.0292251
0.275356
-0.0298156
0.262761
-0.0303585
0.250715
-0.0309754
0.239241
-0.0316122
0.228342
-0.0320726
0.217838
-0.0323613
0.207691
-0.0325647
0.197993
-0.0326226
0.188693
-0.0324884
0.179791
-0.0322008
0.171305
-0.0318218
0.163208
-0.0313488
0.155382
-0.0306526
0.147752
-0.0296984
0.140395
-0.0285685
0.133373
-0.0273276
0.126687
-0.0260002
0.120395
-0.0239544
0.113155
-0.0211489
0.104429
-0.0162874
0.0903101
-0.00830865
0.0623674
0.0134654
0.002975
0.948841
0.0013589
0.957639
-0.000112004
0.912429
-0.00102405
0.866934
-0.00185628
0.824604
-0.00266209
0.78451
-0.00346245
0.746641
-0.00432088
0.711145
-0.00519105
0.677385
-0.00617727
0.645382
-0.00727831
0.615053
-0.00844387
0.586218
-0.00969995
0.558859
-0.0109685
0.532885
-0.0122594
0.508173
-0.0136499
0.484764
-0.0151401
0.462545
-0.0167002
0.441436
-0.0182095
0.4212
-0.0195296
0.401802
-0.0206968
0.383376
-0.0218222
0.365767
-0.0230228
0.349191
-0.0244317
0.333528
-0.0259767
0.318401
-0.0275297
0.303847
-0.0291046
0.290074
-0.030662
0.276913
-0.0321239
0.264223
-0.0333536
0.251944
-0.0342692
0.240157
-0.0349156
0.228988
-0.0354184
0.218341
-0.0357732
0.208046
-0.0359021
0.198122
-0.0358657
0.188656
-0.035715
0.17964
-0.0354159
0.171006
-0.0348596
0.162652
-0.0340421
0.154564
-0.0331495
0.14686
-0.0322438
0.139489
-0.0312548
0.132384
-0.0302638
0.125696
-0.0287856
0.118917
-0.0266819
0.111051
-0.023225
0.100972
-0.0169098
0.0839949
-0.00669324
0.0521509
0.00677221
0.00292033
0.94592
0.00207568
0.958483
0.00122772
0.913277
0.000254576
0.867907
-0.000724583
0.825584
-0.00160866
0.785394
-0.00257497
0.747608
-0.00351999
0.71209
-0.00435953
0.678224
-0.00527438
0.646297
-0.00621457
0.615993
-0.00724976
0.587253
-0.00841995
0.560029
-0.00973817
0.534203
-0.0111473
0.509582
-0.0125703
0.486187
-0.013994
0.463969
-0.0155325
0.442974
-0.0173153
0.422982
-0.0193384
0.403825
-0.021516
0.385554
-0.0236628
0.367914
-0.025575
0.351103
-0.0272457
0.335198
-0.0287673
0.319922
-0.0301156
0.305195
-0.031209
0.291167
-0.0321482
0.277853
-0.0330139
0.265089
-0.0338969
0.252827
-0.0348285
0.241088
-0.0356844
0.229844
-0.036339
0.218995
-0.0368389
0.208546
-0.0372523
0.198536
-0.0375082
0.188912
-0.0375584
0.17969
-0.0374174
0.170865
-0.0371996
0.162434
-0.0369158
0.154281
-0.0363686
0.146312
-0.0355154
0.138636
-0.0345122
0.131381
-0.0334807
0.124664
-0.0317856
0.117222
-0.0293788
0.108644
-0.0249595
0.0965529
-0.0167522
0.0757876
-0.00463485
0.0400335
0.00213736
0.00376273
0.942158
0.00277321
0.959473
0.00196993
0.91408
0.00117358
0.868704
0.000535491
0.826222
-0.000130855
0.786061
-0.000922552
0.748399
-0.00172025
0.712888
-0.00267052
0.679174
-0.00366176
0.647288
-0.00473618
0.617067
-0.0059125
0.58843
-0.00718046
0.561297
-0.00857064
0.535593
-0.0101249
0.511137
-0.0118294
0.487891
-0.0136038
0.465743
-0.0153595
0.44473
-0.0170199
0.424643
-0.0185106
0.405316
-0.0199762
0.387019
-0.0215827
0.36952
-0.0233376
0.352858
-0.0252306
0.337091
-0.0271576
0.321849
-0.029153
0.307191
-0.0311887
0.293203
-0.0331492
0.279813
-0.0349156
0.266855
-0.0364
0.254312
-0.0375832
0.242272
-0.0385236
0.230785
-0.0393408
0.219813
-0.0399893
0.209194
-0.0403964
0.198943
-0.0406356
0.189151
-0.0407525
0.179807
-0.0407387
0.170851
-0.0404511
0.162146
-0.0398695
0.153699
-0.0392249
0.145668
-0.0385954
0.138007
-0.0380253
0.130811
-0.0369238
0.123563
-0.0351231
0.115421
-0.0320334
0.105555
-0.0264173
0.0909367
-0.016825
0.0661954
-0.00320294
0.0264114
-0.00106557
0.00371288
0.938445
0.00342155
0.959764
0.00301959
0.914482
0.00238491
0.869338
0.00176154
0.826845
0.0010214
0.786801
0.000283948
0.749137
-0.000372291
0.713544
-0.00108574
0.679888
-0.00183486
0.648037
-0.00273118
0.617964
-0.00378874
0.589487
-0.0050019
0.56251
-0.00630922
0.5369
-0.00771675
0.512544
-0.00924859
0.489423
-0.0109127
0.467407
-0.0128437
0.446661
-0.015147
0.426946
-0.0176794
0.407849
-0.0201932
0.389533
-0.0226199
0.371947
-0.0248298
0.355068
-0.0268917
0.339153
-0.0288672
0.323825
-0.030598
0.308922
-0.0320706
0.294676
-0.0334195
0.281162
-0.0347742
0.26821
-0.0361504
0.255688
-0.0375358
0.243657
-0.0388309
0.23208
-0.039916
0.220898
-0.0408392
0.210118
-0.0416672
0.199771
-0.0423366
0.189821
-0.0428003
0.180271
-0.0430262
0.171077
-0.0431494
0.162269
-0.0432183
0.153768
-0.0430198
0.145469
-0.0425357
0.137523
-0.0419708
0.130246
-0.0407248
0.122317
-0.0387232
0.11342
-0.0348768
0.101708
-0.0276418
0.0837018
-0.0153484
0.053902
-0.00218814
0.0132511
-0.00325371
0.00459696
0.933848
0.00410208
0.960259
0.00369878
0.914885
0.00321356
0.869824
0.0029737
0.827085
0.00257103
0.787204
0.00209111
0.749617
0.00146153
0.714174
0.000787415
0.680562
4.89263e-05
0.648776
-0.000770052
0.618783
-0.00174382
0.590461
-0.0029381
0.563704
-0.00436563
0.538328
-0.00600301
0.514182
-0.00779088
0.491211
-0.0096278
0.469244
-0.0113824
0.448416
-0.0130826
0.428646
-0.0148936
0.409659
-0.0168635
0.391503
-0.0190524
0.374136
-0.0213974
0.357413
-0.0237801
0.341536
-0.0262551
0.3263
-0.0288994
0.311566
-0.0315705
0.297347
-0.0340952
0.283687
-0.0363489
0.270464
-0.0383182
0.257657
-0.0399918
0.245331
-0.0414496
0.233538
-0.0427946
0.222243
-0.0439509
0.211274
-0.044853
0.200673
-0.0455718
0.19054
-0.0461573
0.180856
-0.0466409
0.171561
-0.0468518
0.16248
-0.0467444
0.153661
-0.0465725
0.145298
-0.0466483
0.137598
-0.0461779
0.129776
-0.0449968
0.121135
-0.0426221
0.111045
-0.0377127
0.0967988
-0.0278051
0.0737942
-0.0114547
0.0375516
-0.00152529
0.00332168
-0.004779
0.00423871
0.929609
0.0042341
0.960264
0.00428604
0.914833
0.00397602
0.870134
0.00369209
0.827369
0.0034216
0.787474
0.0032942
0.749744
0.00307255
0.714396
0.00270797
0.680926
0.00219733
0.649286
0.00154692
0.619433
0.000759703
0.591248
-0.000127955
0.564592
-0.00119649
0.539396
-0.00250506
0.51549
-0.00406919
0.492775
-0.00601708
0.471192
-0.008344
0.450743
-0.0109853
0.431287
-0.0137818
0.412456
-0.0165895
0.394311
-0.0193403
0.376887
-0.0220228
0.360096
-0.0246512
0.344164
-0.0271204
0.328769
-0.0293407
0.313786
-0.031392
0.299398
-0.0334145
0.285709
-0.0354777
0.272527
-0.0375332
0.259713
-0.0395743
0.247372
-0.0414789
0.235442
-0.0431493
0.223913
-0.0446865
0.212811
-0.0461472
0.202133
-0.0474605
0.191853
-0.0485401
0.181936
-0.0492989
0.172319
-0.0499534
0.163135
-0.0505936
0.154301
-0.0510759
0.14578
-0.0511879
0.13771
-0.0505356
0.129123
-0.049204
0.119804
-0.0459823
0.107823
-0.0387935
0.08961
-0.0253063
0.060307
-0.00702724
0.0192725
-0.00072063
-0.00298493
-0.00549963
0.00534261
0.924266
0.00497683
0.96063
0.00488705
0.914923
0.00463226
0.870388
0.00462421
0.827377
0.00440721
0.787691
0.00432296
0.749828
0.00429602
0.714422
0.00421902
0.681003
0.00398593
0.649519
0.00358105
0.619838
0.00291714
0.591912
0.00197232
0.565537
0.000799928
0.540569
-0.000619791
0.51691
-0.00218233
0.494338
-0.0037953
0.472805
-0.00545087
0.452398
-0.00731508
0.433152
-0.00951247
0.414653
-0.0120031
0.396801
-0.014762
0.379646
-0.0176677
0.363001
-0.0206323
0.347129
-0.0238497
0.331987
-0.0272576
0.317194
-0.0306411
0.302781
-0.033806
0.288874
-0.036716
0.275437
-0.0393728
0.26237
-0.0417529
0.249752
-0.0439641
0.237653
-0.0460588
0.226008
-0.0479009
0.214653
-0.0494585
0.203691
-0.0508074
0.193202
-0.0520646
0.183193
-0.0532884
0.173543
-0.0541995
0.164046
-0.05476
0.154861
-0.0553865
0.146406
-0.0556625
0.137987
-0.0553479
0.128809
-0.0535626
0.118019
-0.0485305
0.102791
-0.0375761
0.0786556
-0.0187497
0.0414806
-0.00379454
0.00431735
1.43476e-05
-0.00679381
-0.00548528
0.00477752
0.919489
0.0047455
0.960662
0.00480125
0.914867
0.00452261
0.870667
0.00465467
0.827245
0.00481333
0.787532
0.00507248
0.749569
0.00526834
0.714227
0.00545506
0.680817
0.00551641
0.649458
0.00552607
0.619828
0.00542626
0.592012
0.00506955
0.565894
0.00440104
0.541237
0.00333681
0.517974
0.0017609
0.495913
-0.000297889
0.474864
-0.0027455
0.454846
-0.00543259
0.435839
-0.00832224
0.417543
-0.0113696
0.399849
-0.014492
0.382768
-0.0177148
0.366224
-0.0209065
0.350321
-0.0239222
0.335002
-0.0267879
0.32006
-0.0296331
0.305627
-0.0325347
0.291776
-0.0354387
0.278341
-0.038314
0.265245
-0.0411215
0.252559
-0.0437502
0.240282
-0.04615
0.228408
-0.0484881
0.216991
-0.0507787
0.205982
-0.0529164
0.19534
-0.0547283
0.185005
-0.0561189
0.174934
-0.0574665
0.165393
-0.058945
0.15634
-0.0600511
0.147512
-0.0602445
0.13818
-0.0593407
0.127905
-0.0561332
0.114811
-0.0482655
0.0949233
-0.0328734
0.0632635
-0.0113419
0.0199491
-0.00234544
-0.00467915
-1.68563e-06
-0.00913756
-0.00548697
0.00568327
0.913806
0.00510359
0.961241
0.00498478
0.914986
0.00453647
0.871115
0.00452875
0.827253
0.00459655
0.787465
0.00501335
0.749152
0.00547004
0.71377
0.00600772
0.680279
0.00636976
0.649096
0.0065352
0.619663
0.00650374
0.592043
0.00626034
0.566137
0.00574452
0.541753
0.00499426
0.518724
0.00404618
0.496862
0.00283794
0.476072
0.00127715
0.456407
-0.000694653
0.43781
-0.00314209
0.41999
-0.00600905
0.402716
-0.00924884
0.386008
-0.0127178
0.369693
-0.0164153
0.354018
-0.0204265
0.339013
-0.0246412
0.324274
-0.0287485
0.309734
-0.0326311
0.295659
-0.036334
0.282044
-0.0398013
0.268712
-0.0430473
0.255805
-0.0461349
0.24337
-0.0490657
0.231338
-0.0516954
0.219621
-0.0540386
0.208325
-0.0561683
0.197469
-0.0582542
0.187091
-0.0603748
0.177054
-0.0621688
0.167187
-0.0635115
0.157682
-0.0643993
0.1484
-0.0645958
0.138376
-0.0630886
0.126398
-0.0576146
0.109337
-0.0449657
0.0822745
-0.0229454
0.0412431
-0.00545918
0.00246292
-0.000756242
-0.00938209
0.000288462
-0.0101823
-0.00519851
0.00425522
0.90955
0.00410503
0.961391
0.00394138
0.91515
0.00359307
0.871464
0.00379848
0.827047
0.00388683
0.787376
0.00439191
0.748647
0.00497774
0.713184
0.00580639
0.67945
0.00669207
0.64821
0.00759732
0.618758
0.00832011
0.591321
0.00874696
0.56571
0.00876158
0.541738
0.00817573
0.51931
0.00696765
0.49807
0.00523975
0.4778
0.00314589
0.458501
0.000702602
0.440254
-0.00209307
0.422786
-0.00526001
0.405883
-0.0086975
0.389445
-0.0123924
0.373388
-0.0160421
0.357668
-0.0196462
0.342618
-0.0232707
0.327899
-0.027054
0.313517
-0.0309238
0.299528
-0.0347742
0.285894
-0.0385712
0.272509
-0.0422302
0.259464
-0.0456647
0.246804
-0.0489015
0.234575
-0.0521029
0.222822
-0.0552547
0.211476
-0.0582784
0.200493
-0.0609637
0.189776
-0.0631595
0.17925
-0.0652816
0.169309
-0.0673516
0.159752
-0.0685784
0.149627
-0.068247
0.138045
-0.0649574
0.123108
-0.0555673
0.0999467
-0.0368349
0.0635421
-0.0126742
0.0170825
-0.00278153
-0.00742971
-0.000102281
-0.0120613
0.000342671
-0.0106272
-0.00485584
0.0049467
0.904604
0.00370963
0.962628
0.00316877
0.91569
0.00248223
0.87215
0.00226279
0.827267
0.00234708
0.787292
0.00287828
0.748116
0.00367738
0.712385
0.00460675
0.678521
0.00557083
0.647246
0.00654167
0.617787
0.00747441
0.590388
0.00828273
0.564902
0.00895087
0.54107
0.00937719
0.518884
0.00936604
0.498081
0.00879753
0.478369
0.0076145
0.459684
0.00586108
0.442007
0.00350734
0.42514
0.000544004
0.408846
-0.00293701
0.392926
-0.00691575
0.377367
-0.0113776
0.36213
-0.0162161
0.347456
-0.0212266
0.33291
-0.0260967
0.318387
-0.0308209
0.304253
-0.0353848
0.290458
-0.039791
0.276915
-0.0439645
0.263638
-0.0479731
0.250813
-0.0517533
0.238355
-0.0552067
0.226276
-0.0584133
0.214683
-0.0614015
0.203481
-0.0642948
0.192669
-0.067296
0.182251
-0.0700647
0.172078
-0.0720157
0.161703
-0.0728539
0.150465
-0.0714704
0.136661
-0.0650752
0.116713
-0.0502387
0.0851102
-0.0241816
0.037485
-0.0060393
-0.00105988
-0.00134991
-0.0121191
0.000152977
-0.0135642
0.000317439
-0.0107917
-0.0045384
0.00352515
0.901079
0.00274442
0.963409
0.00134107
0.917094
0.000510487
0.872981
-3.39715e-05
0.827811
-6.1339e-05
0.787319
0.000250275
0.747805
0.00122529
0.71141
0.00254069
0.677206
0.00418673
0.6456
0.00590904
0.616064
0.00753514
0.588762
0.00886642
0.56357
0.00974697
0.54019
0.0101147
0.518516
0.00991576
0.49828
0.00916606
0.479118
0.00781856
0.461031
0.00591731
0.443908
0.00346772
0.427589
0.000495828
0.411818
-0.0029581
0.39638
-0.00677231
0.381181
-0.0108143
0.366172
-0.014917
0.351559
-0.0193296
0.337322
-0.0241193
0.323177
-0.0290079
0.309141
-0.0339179
0.295368
-0.0387124
0.28171
-0.0433786
0.268304
-0.0477299
0.255164
-0.0518335
0.242459
-0.0558446
0.230287
-0.059761
0.218599
-0.0636377
0.207358
-0.067344
0.196376
-0.0706521
0.185559
-0.0735105
0.174937
-0.075702
0.163895
-0.0763019
0.151065
-0.0730961
0.133456
-0.0622685
0.105886
-0.0393125
0.0621541
-0.0137316
0.0119041
-0.00460747
-0.010184
-0.00198814
-0.0147384
-0.000777109
-0.0147753
-7.40228e-05
-0.0114948
-0.00461242
0.00397727
0.897101
0.00223469
0.965152
8.54656e-06
0.91932
-0.00145762
0.874447
-0.0025879
0.828941
-0.00310978
0.787841
-0.00292347
0.747618
-0.00223613
0.710723
-0.00112019
0.67609
0.000436189
0.644044
0.00228355
0.614217
0.00439983
0.586646
0.00663221
0.561338
0.00880673
0.538015
0.0106795
0.516643
0.0119479
0.497011
0.0124597
0.478606
0.0122236
0.461267
0.0111996
0.444932
0.00933985
0.429449
0.00663375
0.414524
0.00310865
0.399905
-0.00126924
0.385559
-0.00623895
0.371141
-0.0117718
0.357091
-0.0174298
0.34298
-0.0230559
0.328803
-0.028689
0.314774
-0.0342799
0.300959
-0.0397282
0.287158
-0.0449522
0.273528
-0.0499911
0.260203
-0.0546908
0.247159
-0.0589415
0.234538
-0.0628833
0.222541
-0.0666214
0.211096
-0.0703958
0.20015
-0.0742337
0.189397
-0.0776631
0.178366
-0.0798019
0.166034
-0.0786909
0.149954
-0.0715276
0.126292
-0.0542845
0.0886426
-0.025135
0.0330046
-0.00876774
-0.00446314
-0.00453999
-0.0144117
-0.00298938
-0.016289
-0.0019454
-0.0158192
-0.000778195
-0.012662
-0.00539062
0.00311406
0.893987
0.00188431
0.966382
-0.00139261
0.922597
-0.00349651
0.876551
-0.00535593
0.830801
-0.00648721
0.788973
-0.00669495
0.747826
-0.00607888
0.710107
-0.00458641
0.674597
-0.00254092
0.641998
-0.000196302
0.611872
0.00223711
0.584212
0.00451905
0.559056
0.00660896
0.535925
0.00846094
0.514791
0.0098619
0.49561
0.0105783
0.47789
0.0105348
0.461311
0.00977147
0.445696
0.00824444
0.430976
0.00593516
0.416833
0.00307156
0.402769
-0.000415054
0.389045
-0.00449565
0.375222
-0.00898927
0.361585
-0.0142764
0.348267
-0.019997
0.334524
-0.0259438
0.320721
-0.0318754
0.306891
-0.0378426
0.293125
-0.0435994
0.279285
-0.0490225
0.265626
-0.0541348
0.252271
-0.0589786
0.239382
-0.0635282
0.227091
-0.0680158
0.215584
-0.0723626
0.204497
-0.0764542
0.193489
-0.0797189
0.181631
-0.0811367
0.167451
-0.0783653
0.147183
-0.0669207
0.114848
-0.0411165
0.0628383
-0.0153326
0.00722079
-0.0068976
-0.0128981
-0.00410194
-0.0172074
-0.00267732
-0.0177137
-0.00187489
-0.0166217
-0.00102416
-0.0135127
-0.00641478
0.00314041
0.890847
0.00241206
0.96711
-0.00222594
0.927235
-0.00479333
0.879118
-0.00777135
0.833779
-0.00968097
0.790882
-0.0108327
0.748978
-0.0112473
0.710521
-0.0105379
0.673888
-0.00880292
0.640263
-0.00614518
0.609215
-0.00276935
0.580836
0.00101712
0.55527
0.00470873
0.532234
0.00812426
0.511376
0.0110802
0.492654
0.0133173
0.475653
0.0146022
0.460026
0.0148546
0.445443
0.0140595
0.431771
0.0120842
0.418808
0.00873068
0.406122
0.00453351
0.393242
-0.000572751
0.380328
-0.00625206
0.367264
-0.0121604
0.354176
-0.0185581
0.340921
-0.0251586
0.327322
-0.0318794
0.313611
-0.0384366
0.299683
-0.0448877
0.285736
-0.0511255
0.271864
-0.0568898
0.258035
-0.0620478
0.24454
-0.0666231
0.231666
-0.0706684
0.219629
-0.0750187
0.208847
-0.0795582
0.198028
-0.0829774
0.18505
-0.0829195
0.167394
-0.0760952
0.140358
-0.0578179
0.0965706
-0.0261814
0.0312019
-0.00961525
-0.00934538
-0.00369172
-0.0188217
-0.00125008
-0.019649
-0.000390879
-0.0185729
-0.000483887
-0.0165287
-0.000598564
-0.013398
-0.00701335
0.00144213
0.889405
0.00174599
0.966806
-0.00314776
0.932129
-0.00618937
0.88216
-0.00982472
0.837414
-0.0125097
0.793567
-0.0142274
0.750695
-0.0149243
0.711218
-0.0145875
0.673551
-0.0133414
0.639017
-0.0112279
0.607101
-0.00839565
0.578004
-0.00501265
0.551887
-0.00134387
0.528565
0.00230849
0.507724
0.00556936
0.489394
0.00818765
0.473035
0.0101174
0.458096
0.0111604
0.4444
0.0112263
0.431705
0.0105019
0.419533
0.00887227
0.407752
0.006065
0.39605
0.00224103
0.384152
-0.00269773
0.372203
-0.00845517
0.359933
-0.0148418
0.347308
-0.0216709
0.334151
-0.0288072
0.320748
-0.0360064
0.306882
-0.0430252
0.292755
-0.0497414
0.27858
-0.0561461
0.26444
-0.0620717
0.250465
-0.0674075
0.237002
-0.0722018
0.224423
-0.076567
0.213212
-0.0803154
0.201777
-0.0829501
0.187685
-0.0813699
0.165813
-0.069049
0.128037
-0.0435231
0.0710448
-0.0143314
0.00201012
-0.00230666
-0.0213701
0.00346413
-0.0245925
0.005869
-0.0220539
0.00557623
-0.0182801
0.00343341
-0.0143858
0.00106695
-0.0110316
-0.00594639
0.00370038
0.885704
0.0029259
0.96758
-0.00252581
0.93758
-0.00689805
0.886532
-0.0111403
0.841656
-0.0152318
0.797659
-0.0186546
0.754118
-0.0207929
0.713356
-0.0213144
0.674072
-0.0202011
0.637904
-0.0177261
0.604626
-0.0140532
0.574331
-0.00939865
0.547232
-0.00422279
0.523389
0.000999709
0.502501
0.00591131
0.484482
0.0102024
0.468743
0.0135697
0.454729
0.015665
0.442305
0.0161822
0.431188
0.0153998
0.420315
0.0133927
0.409759
0.00997905
0.399463
0.00556134
0.38857
0.000309858
0.377455
-0.00598535
0.366228
-0.0128862
0.354209
-0.0204189
0.341683
-0.0282168
0.328545
-0.0361806
0.314846
-0.0440115
0.300585
-0.0515631
0.286132
-0.0586836