/*--------------------------------*- C++ -*----------------------------------*\
| =========                 |                                                 |
| \\      /  F ield         | OpenFOAM: The Open Source CFD Toolbox           |
|  \\    /   O peration     | Version:  v1912                                 |
|   \\  /    A nd           | Website:  www.openfoam.com                      |
|    \\/     M anipulation  |                                                 |
\*---------------------------------------------------------------------------*/
FoamFile
{
    version     2.0;
    format      ascii;
    class       volVectorField;
    location    "0.43";
    object      U;
}
// * * * * * * * * * * * * * * * * * * * * * * * * * * * * * * * * * * * * * //

dimensions      [0 1 -1 0 0 0 0];


internalField   nonuniform List<vector> 
6600
(
(39.8376 -0.0521748 0)
(40.0766 -0.06674 1.07283e-19)
(40.1343 -0.000845921 7.57309e-18)
(40.1577 0.104491 0)
(40.1843 0.21186 9.42795e-18)
(40.231 0.353007 3.26612e-19)
(40.2913 0.505101 -3.63061e-19)
(40.3636 0.663383 -4.03301e-19)
(40.439 0.830663 8.07834e-18)
(40.5133 0.998183 -5.32705e-19)
(40.5958 1.16617 0)
(40.6679 1.33465 -9.87918e-18)
(40.7265 1.51317 0)
(40.7896 1.69621 -1.14097e-17)
(40.8535 1.88221 -1.44677e-17)
(40.9221 2.07335 -7.57534e-18)
(40.9841 2.28956 0)
(41.0182 2.53753 0)
(41.0391 2.80704 1.17586e-17)
(41.0697 3.07203 -1.15475e-17)
(41.0752 3.35734 -1.61845e-18)
(41.0726 3.66178 -5.4889e-18)
(41.0665 4.00508 -1.02132e-17)
(41.0441 4.37893 2.27673e-18)
(41.0407 4.78155 7.71815e-18)
(41.0323 5.22233 0)
(41.0076 5.70438 1.90418e-17)
(40.9818 6.25389 0)
(40.987 6.93352 -9.71352e-18)
(40.9474 7.63128 -6.40377e-18)
(40.9444 8.35822 -2.96908e-19)
(40.9226 9.14122 -7.82797e-18)
(40.8752 9.99872 -2.96446e-18)
(40.8082 10.9163 6.40072e-18)
(40.7315 11.9249 3.42678e-19)
(40.5985 12.9907 7.69074e-18)
(40.448 14.1263 1.31308e-17)
(40.3488 15.3894 1.39275e-17)
(40.4145 16.6967 -1.01248e-17)
(40.4843 18.095 1.10185e-17)
(40.4774 19.5924 5.90633e-18)
(40.4449 21.2237 0)
(40.4221 22.9817 -2.80334e-18)
(40.5291 24.9026 6.28414e-18)
(40.6877 26.8689 0)
(40.862 29.0314 2.11234e-18)
(40.97 31.1055 4.05017e-18)
(41.5255 33.7319 0)
(39.9893 35.0585 0)
(29.6409 28.344 -1.60461e-19)
(39.7226 -0.053627 6.2957e-18)
(40.1435 -0.0918298 -6.92918e-18)
(40.1819 0.0177348 0)
(40.2348 0.137943 -1.33161e-19)
(40.2831 0.276198 9.58613e-18)
(40.3501 0.430647 3.27739e-19)
(40.4254 0.594069 -2.02341e-22)
(40.4989 0.762362 -4.04131e-19)
(40.5849 0.925891 0)
(40.6605 1.09657 -1.54632e-17)
(40.7429 1.27048 -5.54574e-19)
(40.8203 1.44943 9.85067e-18)
(40.8925 1.62509 1.02745e-17)
(40.961 1.81211 6.16675e-18)
(41.0239 2.01233 -1.54903e-21)
(41.0674 2.22322 9.48197e-19)
(41.1134 2.43152 -8.43427e-18)
(41.1669 2.63614 0)
(41.2013 2.87241 0)
(41.2582 3.14433 1.18038e-17)
(41.3315 3.45283 1.64043e-18)
(41.38 3.80086 -9.08838e-18)
(41.4347 4.18141 -8.09622e-18)
(41.4591 4.59766 -9.02037e-18)
(41.4817 5.04287 -7.51127e-18)
(41.4948 5.54544 -2.82024e-18)
(41.4934 6.08436 -3.2075e-18)
(41.5174 6.64201 -3.49793e-18)
(41.4861 7.22931 9.82296e-18)
(41.4161 7.854 2.47463e-19)
(41.3556 8.54103 -1.21196e-17)
(41.3647 9.31689 1.07743e-17)
(41.3693 10.1631 8.60995e-18)
(41.346 11.0859 -9.78001e-18)
(41.3553 12.0643 3.76486e-19)
(41.4426 13.1376 -7.86639e-18)
(41.5527 14.2958 7.97769e-18)
(41.6471 15.5456 -4.87288e-18)
(41.6687 16.8886 -4.72275e-18)
(41.7214 18.3278 -5.10261e-18)
(41.8562 19.8749 0)
(42.0161 21.5009 0)
(42.2414 23.1755 -2.40601e-18)
(42.4866 24.9859 2.60961e-18)
(42.7552 26.8745 4.31809e-18)
(43.1302 28.9732 -2.18142e-18)
(43.499 30.9895 -2.23664e-18)
(44.2488 33.3996 0)
(42.8063 34.2689 -1.80118e-18)
(31.0773 27.2004 2.62817e-19)
(39.6225 -0.0455933 -3.63176e-20)
(40.2489 -0.0882759 7.06988e-18)
(40.2699 0.05948 7.68491e-18)
(40.3063 0.18819 -2.38855e-22)
(40.3561 0.33588 -4.83639e-19)
(40.4257 0.494135 3.28313e-19)
(40.5076 0.645705 0)
(40.5837 0.797901 0)
(40.6747 0.952698 0)
(40.7578 1.11001 8.50544e-18)
(40.8476 1.27132 -5.54982e-19)
(40.9312 1.44195 -9.90453e-18)
(41.0078 1.61843 -4.85814e-18)
(41.0845 1.80259 1.14903e-17)
(41.1799 1.99591 6.80302e-18)
(41.2807 2.21068 -9.51761e-19)
(41.349 2.46809 1.80095e-17)
(41.4151 2.74879 -9.40537e-18)
(41.4557 3.02047 -1.04799e-17)
(41.4816 3.30696 0)
(41.5449 3.59912 -6.5065e-18)
(41.5905 3.92933 7.34653e-18)
(41.6272 4.29992 8.18133e-18)
(41.6718 4.7171 9.12721e-18)
(41.7156 5.15828 7.65177e-18)
(41.7785 5.62256 -1.34391e-18)
(41.8168 6.15118 -1.56007e-18)
(41.8573 6.74955 -5.11408e-18)
(41.9573 7.45345 -1.92752e-18)
(42.0361 8.19918 6.52776e-18)
(42.1139 8.96621 2.36053e-18)
(42.1927 9.79387 0)
(42.2819 10.6671 -1.13662e-17)
(42.3599 11.5946 3.07661e-18)
(42.3985 12.5997 6.76485e-18)
(42.4135 13.6613 1.07629e-17)
(42.4388 14.782 -4.31693e-18)
(42.5706 16.0117 -4.26576e-18)
(42.8809 17.2836 4.72492e-19)
(43.1745 18.6313 0)
(43.4183 20.0475 -4.25482e-18)
(43.6765 21.5894 0)
(43.9975 23.2228 0)
(44.5 24.9756 -3.86628e-18)
(45.0691 26.7533 -1.91552e-18)
(45.6505 28.6972 5.40996e-19)
(46.253 30.641 6.4557e-19)
(47.0698 32.79 0)
(45.5134 33.1904 -1.54873e-18)
(32.1849 25.6869 1.76128e-18)
(39.547 -0.0244271 -6.30319e-18)
(40.3613 -0.0608667 5.41399e-20)
(40.3839 0.117068 -7.89453e-18)
(40.458 0.235965 -8.36343e-18)
(40.5149 0.388355 -9.33337e-18)
(40.5916 0.548164 -5.06675e-18)
(40.6801 0.705813 -3.64241e-19)
(40.7605 0.86286 0)
(40.8509 1.02211 7.16403e-18)
(40.9393 1.18699 8.46e-18)
(41.0294 1.35705 -5.55116e-19)
(41.1209 1.52689 -6.17848e-19)
(41.2052 1.70434 -4.83169e-18)
(41.2733 1.89763 -8.14525e-19)
(41.3337 2.10378 7.96009e-19)
(41.4216 2.30457 -9.51402e-19)
(41.5028 2.50545 9.75259e-19)
(41.5932 2.74734 1.06696e-17)
(41.6808 3.02018 1.44902e-17)
(41.7508 3.33904 0)
(41.8466 3.67994 9.24984e-20)
(41.9725 4.04005 0)
(42.0614 4.43225 0)
(42.1359 4.87129 -2.25181e-18)
(42.2042 5.36818 7.46219e-18)
(42.2808 5.9182 7.01639e-18)
(42.3677 6.48736 -1.54609e-18)
(42.4519 7.05618 6.94839e-18)
(42.5014 7.65544 0)
(42.5134 8.31859 0)
(42.5906 9.04259 4.48651e-18)
(42.7346 9.83001 0)
(42.8728 10.6941 2.92521e-18)
(42.9964 11.6232 5.97282e-18)
(43.1945 12.606 -9.97031e-18)
(43.4508 13.678 -1.05955e-17)
(43.7504 14.8096 1.08489e-17)
(44.0221 16.0094 -3.97514e-18)
(44.2465 17.3024 4.28448e-19)
(44.5728 18.6687 5.02951e-19)
(45.0045 20.1133 7.98277e-18)
(45.4712 21.5957 0)
(45.993 23.1086 0)
(46.5515 24.7254 1.67528e-18)
(47.208 26.3921 4.80799e-19)
(47.9975 28.2223 -8.66836e-19)
(48.82 30.0674 -1.45034e-18)
(49.6561 31.8806 1.60221e-18)
(47.8329 31.8241 3.82821e-18)
(32.8567 23.8626 0)
(39.4941 -0.0057802 -2.43829e-20)
(40.4971 -0.0347716 6.91111e-18)
(40.5123 0.182223 7.534e-18)
(40.5911 0.295493 8.66162e-18)
(40.6369 0.446617 0)
(40.7123 0.58317 3.62971e-20)
(40.7968 0.728122 0)
(40.8814 0.877537 -4.03479e-19)
(40.9715 1.03049 -1.39017e-17)
(41.062 1.18311 -8.5012e-18)
(41.1565 1.34474 5.54261e-19)
(41.2542 1.51135 6.17026e-19)
(41.3526 1.68598 -6.86969e-19)
(41.4688 1.86963 -6.14547e-18)
(41.5831 2.07805 -1.44696e-17)
(41.6898 2.32157 9.48269e-19)
(41.7918 2.58718 -1.68877e-17)
(41.8743 2.85648 1.17602e-18)
(41.9612 3.13404 -5.2741e-18)
(42.0342 3.43262 -2.91674e-18)
(42.1043 3.76648 8.16948e-18)
(42.2073 4.12987 0)
(42.3242 4.53122 0)
(42.4213 4.9594 -4.40299e-18)
(42.5354 5.39611 -5.00635e-18)
(42.6689 5.8893 6.76543e-18)
(42.7812 6.45982 -1.5231e-18)
(42.9366 7.11568 0)
(43.1554 7.82835 1.84179e-18)
(43.3662 8.57683 -2.05155e-18)
(43.5262 9.37519 -4.55983e-18)
(43.737 10.2326 -7.1128e-18)
(43.9726 11.1017 2.67013e-18)
(44.1915 12.0149 -2.79358e-18)
(44.3501 12.991 3.1123e-18)
(44.5327 14.0173 0)
(44.7671 15.1014 -3.57959e-18)
(45.1407 16.2606 -6.62297e-18)
(45.6852 17.4533 3.71837e-18)
(46.1886 18.7038 3.82404e-18)
(46.6787 19.9929 -3.70801e-18)
(47.2299 21.382 0)
(47.8814 22.8162 0)
(48.7097 24.3164 4.1468e-19)
(49.596 25.8146 -9.54425e-19)
(50.4882 27.4382 -2.59174e-19)
(51.4464 29.1865 1.3194e-18)
(52.155 30.7124 -2.75071e-18)
(49.8521 30.1937 7.51117e-19)
(33.0777 21.7561 -6.46654e-18)
(39.4535 0.00779333 6.24107e-18)
(40.6477 -0.0135138 -7.65852e-20)
(40.6888 0.218367 -7.67884e-18)
(40.7895 0.310181 4.21758e-18)
(40.836 0.47492 0)
(40.9172 0.617669 5.3994e-18)
(41.0055 0.765816 -1.81154e-19)
(41.096 0.91832 -6.40996e-18)
(41.1987 1.07502 7.18192e-18)
(41.3042 1.23593 0)
(41.406 1.39969 5.51964e-19)
(41.5052 1.5696 4.27622e-18)
(41.5946 1.75206 -6.12552e-18)
(41.6822 1.94645 7.61393e-19)
(41.7845 2.14199 7.66466e-18)
(41.9094 2.33663 -9.43401e-19)
(42.0386 2.56735 5.33729e-18)
(42.1615 2.83193 -1.16896e-18)
(42.2873 3.13935 1.2984e-18)
(42.4129 3.47054 4.27786e-18)
(42.5525 3.82186 5.55651e-18)
(42.7149 4.20217 3.03044e-21)
(42.8824 4.62065 1.98141e-18)
(43.0246 5.10724 7.67879e-18)
(43.1612 5.64407 0)
(43.3214 6.2011 -5.46367e-18)
(43.5054 6.76394 1.47583e-18)
(43.6365 7.33775 -2.24633e-20)
(43.7702 7.96615 -8.34879e-20)
(43.8921 8.62734 1.98647e-18)
(44.1048 9.33239 -4.15748e-18)
(44.3766 10.1106 4.79234e-18)
(44.6523 10.9676 0)
(44.9479 11.8851 0)
(45.3358 12.8387 0)
(45.7743 13.8597 0)
(46.2645 14.9225 -4.34248e-18)
(46.7098 16.0354 7.8536e-18)
(47.1353 17.2193 0)
(47.7153 18.452 1.7853e-20)
(48.3913 19.7336 -3.45302e-19)
(49.0993 21.0139 1.64232e-18)
(49.8569 22.3084 -9.0819e-19)
(50.6618 23.6614 0)
(51.603 25.0151 5.73356e-19)
(52.6774 26.4984 -2.68731e-18)
(53.743 28.0768 1.89767e-18)
(54.3069 29.2332 2.44175e-18)
(51.3222 28.2672 1.01111e-17)
(32.7146 19.3596 -7.7992e-18)
(39.4303 0.0269858 -6.23295e-18)
(40.8149 -0.00377542 -1.36955e-17)
(40.8299 0.259137 1.18768e-19)
(40.9266 0.321175 -4.23114e-18)
(40.9679 0.4968 4.51487e-18)
(41.0468 0.62034 -1.62215e-19)
(41.1295 0.759366 5.92359e-18)
(41.2222 0.896042 6.43566e-18)
(41.3229 1.03944 7.30967e-18)
(41.4299 1.18721 -2.47512e-19)
(41.5446 1.34617 -4.37645e-18)
(41.6731 1.51114 -5.32129e-20)
(41.8158 1.68672 5.4711e-18)
(41.9565 1.88635 0)
(42.0808 2.12001 0)
(42.2212 2.3683 4.67158e-19)
(42.3601 2.6258 7.79912e-18)
(42.4966 2.89051 0)
(42.6325 3.17811 6.41603e-19)
(42.7503 3.503 -6.48645e-18)
(42.8686 3.87149 -5.62269e-18)
(43.0252 4.26003 2.58713e-18)
(43.2098 4.65828 0)
(43.3924 5.07676 -4.37359e-18)
(43.586 5.52681 -1.1825e-18)
(43.7917 6.04247 1.31903e-18)
(43.9949 6.63124 0)
(44.2995 7.2936 0)
(44.6426 7.9974 -1.89811e-18)
(44.9728 8.75358 -1.75101e-18)
(45.2409 9.56221 6.22432e-18)
(45.5797 10.4005 -2.23722e-18)
(45.9522 11.2322 -2.29071e-18)
(46.2757 12.0954 4.97713e-18)
(46.5905 13.0102 -6.42137e-18)
(46.9403 13.9557 -1.12609e-18)
(47.3557 14.9525 2.93142e-18)
(47.9378 16 -2.9326e-18)
(48.6736 17.0644 2.29303e-18)
(49.3438 18.1579 3.5908e-20)
(50.0393 19.2553 -3.80577e-19)
(50.8207 20.4245 -8.43869e-19)
(51.7028 21.5973 1.38632e-19)
(52.734 22.7995 -1.54008e-19)
(53.7996 23.9742 4.79402e-19)
(54.8516 25.2343 0)
(55.9405 26.6874 1.66247e-18)
(56.1923 27.5455 3.59567e-18)
(52.3118 26.1107 -6.90312e-18)
(31.6735 16.7089 -2.45746e-18)
(39.4283 0.0362222 6.14528e-18)
(40.9743 -0.00370632 6.78469e-18)
(41.0176 0.263504 5.9152e-20)
(41.1207 0.302095 -4.17212e-18)
(41.1676 0.497062 -9.30881e-18)
(41.2556 0.609703 5.30221e-18)
(41.3389 0.751328 -1.16506e-17)
(41.4458 0.89055 3.16986e-18)
(41.565 1.02868 -7.11446e-18)
(41.6841 1.17612 -4.15716e-18)
(41.7984 1.33383 9.28777e-18)
(41.9101 1.50403 -5.4944e-18)
(42.0291 1.68385 -5.36407e-18)
(42.1736 1.86974 9.78053e-22)
(42.3227 2.06313 -2.89202e-18)
(42.4895 2.2861 3.67472e-18)
(42.6747 2.54149 -4.1511e-18)
(42.8461 2.83407 0)
(43.0379 3.14174 0)
(43.2363 3.46647 0)
(43.4242 3.83328 -7.76137e-19)
(43.6492 4.23331 -2.63112e-18)
(43.8877 4.69185 -2.80061e-18)
(44.1268 5.19881 -1.05673e-18)
(44.3452 5.75002 0)
(44.6063 6.2914 0)
(44.8521 6.84698 2.7264e-18)
(45.0665 7.41611 -1.5061e-18)
(45.2857 8.02851 -1.01302e-19)
(45.5475 8.66332 1.2203e-19)
(45.8696 9.32195 7.66435e-20)
(46.2527 10.0661 -1.84786e-18)
(46.6575 10.8856 1.05951e-18)
(47.1468 11.7473 -3.35223e-18)
(47.6892 12.6257 2.50999e-18)
(48.2856 13.5598 1.44077e-18)
(48.9331 14.5111 1.81007e-19)
(49.5192 15.4918 -1.21828e-18)
(50.1052 16.5107 -1.4138e-18)
(50.87 17.5576 -9.8797e-19)
(51.6935 18.6317 -3.56704e-19)
(52.5425 19.6725 5.18413e-20)
(53.447 20.7114 -5.76649e-20)
(54.4006 21.7622 0)
(55.4973 22.778 0)
(56.7119 23.9075 0)
(57.7537 25.1114 0)
(57.6687 25.5785 0)
(52.5557 23.7119 -4.51256e-18)
(29.8532 13.8765 7.44789e-18)
(39.4183 0.0386696 -6.15781e-18)
(41.13 -0.0246525 0)
(41.159 0.278559 0)
(41.2615 0.285939 4.24747e-18)
(41.3083 0.485802 4.57358e-18)
(41.3947 0.564161 -5.31555e-18)
(41.4696 0.700175 5.90375e-18)
(41.5792 0.815485 -3.17998e-18)
(41.696 0.948557 3.49271e-18)
(41.8275 1.08725 4.16933e-18)
(41.9767 1.23103 -4.36331e-18)
(42.1327 1.38973 4.48163e-18)
(42.2904 1.57023 8.04344e-18)
(42.4572 1.77593 0)
(42.6222 2.00343 3.32568e-18)
(42.8023 2.24385 -4.15029e-18)
(43.0045 2.49264 2.85444e-21)
(43.1976 2.77188 -4.45117e-18)
(43.3851 3.08283 5.55653e-18)
(43.5865 3.42755 0)
(43.7743 3.79819 0)
(43.9884 4.17855 3.31637e-18)
(44.2487 4.56858 1.27558e-19)
(44.5282 4.97878 -4.00989e-18)
(44.8032 5.43224 -1.11115e-18)
(45.0934 5.95763 3.64358e-18)
(45.4487 6.5528 -5.36702e-18)
(45.8662 7.19515 4.26895e-18)
(46.322 7.8777 -2.37737e-18)
(46.7442 8.61531 1.69032e-18)
(47.1455 9.39292 -9.24469e-19)
(47.5929 10.1604 3.07751e-18)
(48.0668 10.9181 -8.72256e-19)
(48.5113 11.7142 2.2001e-18)
(48.954 12.5385 0)
(49.4289 13.3703 9.7048e-19)
(49.9706 14.2408 1.12486e-18)
(50.7038 15.1389 2.31332e-19)
(51.5689 16.0437 -3.92039e-19)
(52.3459 16.9403 7.04626e-19)
(53.1782 17.808 -3.2223e-19)
(54.0932 18.7276 -4.37564e-19)
(55.0824 19.624 1.54787e-18)
(56.1916 20.5254 6.89337e-19)
(57.3154 21.3889 8.2751e-19)
(58.4539 22.3875 -1.25496e-18)
(59.2128 23.2499 0)
(58.6521 23.5269 3.85531e-18)
(52.0922 21.1818 -1.95628e-18)
(27.129 10.9329 0)
(39.4023 0.0402844 2.36697e-20)
(41.2891 -0.0381794 -7.38971e-23)
(41.3514 0.242403 -3.74155e-18)
(41.4546 0.231721 0)
(41.5055 0.44024 -7.157e-20)
(41.6047 0.504801 -2.45032e-18)
(41.6908 0.644961 0)
(41.8114 0.758116 3.11695e-18)
(41.9447 0.883879 -3.72023e-18)
(42.074 1.0225 2.41964e-19)
(42.2073 1.17169 4.26116e-18)
(42.3598 1.32641 -2.13873e-18)
(42.5261 1.492 -2.99653e-18)
(42.7131 1.66459 0)
(42.9049 1.86237 0)
(43.1165 2.09242 0)
(43.3432 2.3474 -3.45588e-18)
(43.5913 2.62512 4.47272e-18)
(43.843 2.92794 -7.98761e-18)
(44.1194 3.25446 6.7218e-19)
(44.3941 3.61975 -1.49142e-18)
(44.68 4.04403 -2.51091e-18)
(45.0037 4.50948 7.21788e-18)
(45.3212 5.02549 5.97742e-18)
(45.6386 5.54667 0)
(45.9829 6.06099 -3.00271e-18)
(46.3112 6.58802 5.78183e-18)
(46.6256 7.14234 -3.53836e-18)
(46.9431 7.71603 1.48785e-18)
(47.3187 8.30372 -8.13129e-19)
(47.7445 8.91204 8.15632e-19)
(48.2267 9.60576 -2.59713e-18)
(48.7885 10.3574 2.80432e-18)
(49.3894 11.1188 -2.7246e-18)
(50.0385 11.8931 -8.63564e-19)
(50.753 12.7141 1.78222e-18)
(51.5174 13.5279 -1.65856e-18)
(52.1964 14.3515 5.9741e-19)
(52.8775 15.1774 -1.85569e-21)
(53.7325 16.0284 0)
(54.6039 16.8886 -9.81664e-20)
(55.5023 17.6856 3.87133e-19)
(56.4722 18.4614 2.84784e-19)
(57.4819 19.2092 -1.93367e-18)
(58.6238 19.914 -2.55974e-19)
(59.8815 20.8026 -1.9195e-18)
(60.402 21.3309 0)
(59.1259 21.3197 4.0675e-18)
(50.6779 18.4981 -6.88801e-18)
(23.5089 8.02723 0)
(39.3786 0.0323365 0)
(41.4278 -0.0698675 0)
(41.4894 0.22086 1.93759e-18)
(41.5794 0.180306 -1.28013e-19)
(41.6156 0.381342 2.33198e-18)
(41.7168 0.411489 2.53505e-18)
(41.8044 0.547628 0)
(41.942 0.637282 -3.12413e-18)
(42.0903 0.757774 3.42265e-18)
(42.2577 0.877648 0)
(42.4343 1.01453 -6.37769e-18)
(42.6136 1.17103 -3.7974e-20)
(42.8028 1.34643 -3.25051e-19)
(43.0105 1.54226 3.62413e-19)
(43.2245 1.74787 0)
(43.4583 1.96767 0)
(43.7069 2.21054 2.27588e-18)
(43.9614 2.47758 1.86725e-18)
(44.209 2.78723 6.71184e-20)
(44.476 3.12065 3.27357e-19)
(44.7461 3.46429 -7.2546e-19)
(45.0256 3.8184 4.01974e-19)
(45.3693 4.18099 -3.56569e-18)
(45.7457 4.57224 -1.4806e-18)
(46.1123 5.03663 1.5056e-18)
(46.511 5.55428 2.20125e-18)
(46.9768 6.11504 -1.91462e-18)
(47.4935 6.72038 -1.94014e-18)
(48.044 7.37047 0)
(48.5633 8.06217 0)
(49.062 8.76698 0)
(49.5998 9.44966 1.70052e-18)
(50.1653 10.1309 7.81354e-19)
(50.6936 10.8448 8.94504e-19)
(51.2296 11.5607 -7.46229e-19)
(51.7831 12.2607 -6.88248e-19)
(52.3902 12.9903 4.46308e-19)
(53.2073 13.7248 -5.22238e-19)
(54.1326 14.4671 2.28851e-19)
(54.9569 15.1549 -2.06219e-20)
(55.8506 15.7955 -2.61677e-19)
(56.8037 16.4784 2.91784e-19)
(57.7914 17.127 0)
(58.8779 17.7597 1.28906e-18)
(59.9742 18.3666 -7.03094e-19)
(60.9731 19.0655 1.07218e-18)
(61.0436 19.3334 0)
(58.8301 19.0732 -1.95951e-18)
(48.2574 15.7585 1.21278e-18)
(18.777 5.15172 0)
(39.3468 0.0321077 1.47908e-18)
(41.5529 -0.0948617 0)
(41.649 0.153125 3.66052e-18)
(41.7308 0.105052 -2.01534e-18)
(41.7795 0.301976 -2.26431e-18)
(41.8944 0.313383 7.78716e-20)
(41.9916 0.450653 -8.66658e-20)
(42.1343 0.53316 0)
(42.2904 0.64445 -3.32315e-18)
(42.4514 0.762289 1.75641e-18)
(42.6348 0.885908 2.10935e-18)
(42.8367 1.02221 -2.48306e-18)
(43.0493 1.169 1.27394e-18)
(43.2845 1.33739 3.553e-19)
(43.5294 1.52754 -1.97374e-19)
(43.7908 1.74182 0)
(44.0844 1.9769 2.18248e-18)
(44.401 2.22797 -2.41314e-18)
(44.7252 2.49744 3.59234e-19)
(45.0647 2.811 -5.1851e-21)
(45.427 3.17026 -3.55283e-19)
(45.7818 3.5886 0)
(46.1626 4.03905 -4.15898e-19)
(46.5607 4.50864 -1.3301e-18)
(46.9631 4.97564 -2.0431e-18)
(47.3693 5.45768 -2.21313e-18)
(47.7855 5.94816 0)
(48.1983 6.45829 1.27877e-18)
(48.6115 6.96874 1.90095e-18)
(49.0741 7.49741 -1.04325e-18)
(49.5984 8.06258 1.74228e-18)
(50.177 8.70018 6.98595e-19)
(50.8051 9.3589 -1.04551e-18)
(51.4787 10.0055 3.88006e-19)
(52.1964 10.6712 7.52753e-19)
(52.9847 11.3752 3.999e-19)
(53.8218 12.0517 2.94194e-19)
(54.5419 12.7264 0)
(55.2489 13.3676 3.61585e-21)
(56.105 14.0477 -2.98314e-20)
(56.9478 14.7163 2.37456e-19)
(57.8235 15.2973 -4.07262e-19)
(58.7851 15.8285 9.69773e-19)
(59.7691 16.3171 -4.55309e-19)
(60.9405 16.8474 1.64108e-18)
(61.664 17.2355 1.20486e-20)
(61.4945 17.3298 0)
(57.9084 16.7051 4.08168e-18)
(44.5796 12.8657 -3.55837e-18)
(12.8698 2.4666 -1.34162e-18)
(39.2772 0.00136475 -1.48031e-18)
(41.647 -0.135167 1.60681e-18)
(41.7504 0.107359 -1.80712e-18)
(41.8093 0.0460297 1.98613e-18)
(41.8655 0.212849 1.1073e-18)
(41.9747 0.201243 7.71562e-20)
(42.0876 0.325753 -4.28609e-20)
(42.2603 0.375944 0)
(42.4353 0.476369 1.56591e-18)
(42.6276 0.570715 -2.686e-18)
(42.8343 0.687207 0)
(43.0565 0.816211 1.42213e-19)
(43.2953 0.966164 -3.38433e-19)
(43.5544 1.12849 -1.20826e-18)
(43.8296 1.30918 1.71866e-18)
(44.1211 1.50772 -2.52525e-21)
(44.4241 1.73013 -2.35984e-19)
(44.7461 1.9864 0)
(45.0719 2.26692 1.1862e-18)
(45.399 2.55868 -1.37926e-18)
(45.7491 2.84752 1.72038e-19)
(46.1159 3.16002 0)
(46.5401 3.48923 0)
(46.999 3.86746 9.41769e-19)
(47.4484 4.30851 -2.33159e-19)
(47.9291 4.78239 1.50597e-18)
(48.4763 5.30076 -5.46265e-19)
(49.0786 5.86421 2.98127e-19)
(49.6973 6.47019 -9.76044e-19)
(50.2844 7.09469 -3.30226e-19)
(50.8553 7.71092 -1.06257e-18)
(51.4681 8.30626 5.92547e-19)
(52.0872 8.90974 -2.70438e-19)
(52.6727 9.53504 2.97012e-19)
(53.2631 10.1446 2.59804e-19)
(53.8503 10.7242 2.79675e-19)
(54.4721 11.3285 0)
(55.3094 11.9174 -1.10567e-19)
(56.2353 12.5211 3.00974e-20)
(57.0551 13.0208 -1.10597e-19)
(57.9353 13.4736 2.70261e-19)
(58.8445 13.9637 -6.16067e-20)
(59.7509 14.4241 -5.17015e-19)
(60.7564 14.8617 -5.41679e-20)
(61.7592 15.2837 -8.23874e-19)
(62.016 15.454 -2.3378e-18)
(61.0397 15.3313 1.42058e-18)
(55.7537 14.2205 0)
(39.613 9.83492 -2.3884e-18)
(6.90758 0.238328 4.59152e-18)
(39.1729 0.0033575 -2.83531e-21)
(41.7214 -0.155638 -1.61729e-18)
(41.8561 0.0357435 4.3116e-19)
(41.9076 -0.0379821 1.55261e-20)
(41.9926 0.110443 -1.10798e-18)
(42.102 0.0898582 0)
(42.2211 0.204603 0)
(42.3849 0.241408 4.67198e-20)
(42.5629 0.328347 -2.54929e-18)
(42.766 0.399537 9.26123e-19)
(42.9902 0.486902 -6.33193e-20)
(43.2303 0.583001 1.40564e-19)
(43.4938 0.700134 -7.93159e-19)
(43.7782 0.834787 7.9177e-19)
(44.0783 0.992551 -2.27818e-18)
(44.4094 1.17097 4.12219e-19)
(44.7666 1.36417 -4.52964e-19)
(45.1556 1.56959 -1.24679e-19)
(45.5628 1.81869 1.39619e-18)
(45.984 2.1142 9.25863e-19)
(46.4203 2.45775 4.12498e-21)
(46.8422 2.84295 1.81672e-19)
(47.2818 3.24876 0)
(47.7612 3.65252 7.58594e-19)
(48.2469 4.06402 4.62243e-21)
(48.7071 4.50336 -2.83899e-19)
(49.1882 4.93664 -1.32091e-19)
(49.6728 5.37479 -2.63614e-19)
(50.1748 5.82257 0)
(50.7182 6.30161 -1.40537e-19)
(51.3095 6.82091 -7.59865e-19)
(51.9338 7.38996 -6.34645e-19)
(52.6027 7.95906 3.48191e-19)
(53.3174 8.51477 -4.22431e-19)
(54.0639 9.09017 2.52924e-19)
(54.8782 9.68645 9.12841e-20)
(55.7386 10.2494 0)
(56.4524 10.8095 8.40375e-20)
(57.1277 11.3051 -6.33411e-20)
(57.9132 11.859 7.07532e-20)
(58.6755 12.3814 -1.86878e-19)
(59.4789 12.8011 3.09157e-19)
(60.3699 13.1485 0)
(61.3493 13.5121 3.09859e-19)
(62.03 13.7377 0)
(62.0538 13.7263 5.83563e-19)
(60.2213 13.3591 -1.45942e-18)
(52.6622 11.7134 8.62007e-19)
(32.8897 6.56312 0)
(3.41806 -0.702832 2.95534e-19)
(39.0429 -0.0402987 -3.50426e-22)
(41.7671 -0.190346 -3.88434e-22)
(41.8999 -0.0197749 -4.44361e-19)
(41.9446 -0.102903 -1.91426e-21)
(42.034 0.00952127 -1.47991e-20)
(42.1477 -0.0287524 -2.35131e-21)
(42.2947 0.0566764 2.61729e-21)
(42.4821 0.0594489 -5.76676e-21)
(42.6668 0.13085 8.31708e-19)
(42.8826 0.182601 1.40798e-20)
(43.1222 0.252098 7.79713e-21)
(43.3832 0.335554 -1.73003e-20)
(43.6682 0.429845 -6.06975e-19)
(43.981 0.54523 6.80231e-19)
(44.3076 0.677436 7.8411e-19)
(44.6501 0.837258 -4.12697e-19)
(45.0147 1.02587 4.39175e-19)
(45.4038 1.23453 1.51627e-20)
(45.799 1.45676 1.65638e-20)
(46.199 1.68594 0)
(46.6399 1.91827 1.96181e-20)
(47.1019 2.18288 1.0631e-20)
(47.6042 2.48815 -1.18837e-20)
(48.1448 2.84471 0)
(48.6842 3.24194 0)
(49.255 3.66477 -4.58603e-19)
(49.8673 4.14647 0)
(50.5386 4.66736 2.63982e-19)
(51.1986 5.21766 0)
(51.8287 5.76413 -8.1798e-21)
(52.4523 6.30771 3.03717e-19)
(53.1078 6.82636 -1.80236e-20)
(53.756 7.35529 2.92085e-19)
(54.3668 7.91057 -2.00687e-20)
(54.978 8.43303 -1.03304e-19)
(55.5642 8.93334 -1.03693e-19)
(56.1648 9.44632 1.21612e-21)
(56.9759 9.9265 0)
(57.856 10.435 -9.57604e-22)
(58.6332 10.8068 2.07827e-21)
(59.444 11.1361 0)
(60.2467 11.5014 -5.20331e-21)
(61.0525 11.8734 -3.22783e-20)
(61.9323 12.2102 -2.68285e-19)
(62.1907 12.2974 -6.0512e-21)
(61.5749 12.216 0)
(58.0604 11.5287 0)
(47.6054 9.26461 1.16309e-19)
(24.9517 3.72734 -1.15332e-19)
(0.477262 -0.596085 2.83076e-19)
(38.8905 -0.0325913 -7.09707e-19)
(41.7885 -0.217181 -7.81841e-19)
(41.9377 -0.0789147 -4.291e-19)
(41.9934 -0.18657 -4.90887e-19)
(42.0837 -0.0937518 -5.02515e-19)
(42.1897 -0.142219 5.75361e-19)
(42.3439 -0.0808035 0)
(42.519 -0.0901408 0)
(42.7221 -0.0529781 -4.02757e-19)
(42.9511 -0.0381634 -1.40781e-20)
(43.202 -0.00265094 4.60753e-19)
(43.4791 0.0450386 3.42707e-20)
(43.7832 0.106469 5.60026e-19)
(44.1144 0.186626 -6.1581e-19)
(44.4721 0.279766 -7.45428e-19)
(44.858 0.392857 0)
(45.27 0.52127 0)
(45.7345 0.68333 -1.51607e-20)
(46.2311 0.891523 -1.65616e-20)
(46.7153 1.1586 5.62135e-19)
(47.2128 1.45889 -1.9615e-20)
(47.7027 1.78284 0)
(48.2028 2.12011 0)
(48.7627 2.45974 9.42153e-20)
(49.3218 2.83182 3.98379e-19)
(49.8474 3.22245 -1.26008e-19)
(50.3802 3.59142 0)
(50.9256 3.96535 2.32988e-19)
(51.5078 4.36241 0)
(52.1196 4.80057 8.17797e-21)
(52.7637 5.26664 0)
(53.4174 5.78038 0)
(54.1142 6.29273 -5.21507e-20)
(54.8487 6.78215 -3.623e-20)
(55.592 7.29869 0)
(56.4047 7.81691 0)
(57.2583 8.31445 -1.21559e-21)
(57.9323 8.81099 0)
(58.5441 9.2184 9.57081e-22)
(59.2202 9.69798 -7.42314e-20)
(59.8738 10.139 1.32279e-19)
(60.5938 10.4831 4.54035e-20)
(61.4589 10.7897 4.25161e-20)
(61.9845 10.9766 -2.68472e-19)
(61.9624 11.0277 -2.24801e-19)
(60.5301 10.7748 1.23461e-18)
(55.1781 9.85498 -5.83846e-19)
(41.3761 7.24788 -7.38366e-19)
(13.8981 1.49434 6.1426e-19)
(-1.87817 -0.00719672 0)
(38.7008 -0.0845241 7.06635e-19)
(41.778 -0.247955 -7.57041e-19)
(41.9297 -0.136117 4.22163e-19)
(41.976 -0.247252 -4.75086e-19)
(42.0711 -0.186252 5.35942e-19)
(42.1939 -0.266489 -5.93719e-19)
(42.353 -0.237371 -4.07788e-20)
(42.534 -0.273609 4.54036e-20)
(42.7429 -0.258797 3.52673e-19)
(42.9756 -0.266218 5.55096e-20)
(43.2407 -0.256164 -4.91146e-19)
(43.5357 -0.243307 -1.07073e-18)
(43.8629 -0.211525 5.81504e-19)
(44.2137 -0.162803 5.76086e-19)
(44.5843 -0.0891423 2.23411e-18)
(44.9811 0.0101059 -9.70591e-20)
(45.3849 0.129683 1.08341e-19)
(45.8194 0.256351 -9.28658e-19)
(46.2915 0.391037 -1.25742e-19)
(46.7794 0.538635 -4.21026e-19)
(47.3014 0.722925 0)
(47.8629 0.94072 0)
(48.433 1.21246 0)
(49.04 1.51452 0)
(49.6733 1.85111 -4.02976e-19)
(50.334 2.23806 8.16381e-19)
(51.0294 2.69212 0)
(51.7558 3.17401 -6.73571e-19)
(52.4538 3.66752 0)
(53.111 4.15749 0)
(53.7649 4.64661 4.46342e-19)
(54.4496 5.11272 -2.03572e-19)
(55.1159 5.59392 4.12249e-19)
(55.7342 6.1096 -1.08582e-19)
(56.356 6.5794 0)
(56.93 7.04849 0)
(57.4967 7.50982 5.25218e-21)
(58.2687 7.9339 -7.11701e-20)
(59.0806 8.40727 0)
(59.8 8.73693 -2.57641e-19)
(60.5281 9.02604 4.62371e-19)
(61.2255 9.36959 -6.45366e-19)
(61.9248 9.76578 3.76981e-19)
(62.0689 9.93707 -5.87931e-19)
(61.5308 9.94205 1.64369e-18)
(58.6149 9.64735 -1.54327e-18)
(50.2367 8.36309 1.10689e-18)
(31.556 5.05757 -2.48489e-18)
(4.92926 0.497208 3.0066e-18)
(-3.35262 0.476867 -1.92984e-18)
(38.4945 -0.0758087 1.38966e-18)
(41.7431 -0.254176 1.05628e-20)
(41.9035 -0.178187 0)
(41.9573 -0.31458 9.57264e-19)
(42.0387 -0.268051 2.17518e-18)
(42.1455 -0.360155 -7.33912e-20)
(42.3059 -0.359903 0)
(42.4888 -0.435678 0)
(42.7008 -0.459365 9.86863e-20)
(42.9362 -0.504102 -1.09936e-19)
(43.2078 -0.530324 1.92493e-18)
(43.5117 -0.553106 -1.0503e-18)
(43.8498 -0.565021 -1.17669e-18)
(44.2227 -0.571168 1.27995e-18)
(44.6251 -0.558629 -1.41981e-18)
(45.0648 -0.527482 -1.90809e-19)
(45.5457 -0.462825 1.88749e-18)
(46.071 -0.356863 2.75026e-18)
(46.6214 -0.204017 0)
(47.1689 -0.00766221 -1.07145e-18)
(47.7162 0.218126 -1.15567e-18)
(48.2693 0.466721 0)
(48.8448 0.734768 1.32786e-18)
(49.4674 1.02103 0)
(50.0876 1.34419 0)
(50.667 1.66043 -8.13891e-19)
(51.2442 1.97525 -4.16329e-19)
(51.8643 2.30461 -8.45141e-19)
(52.528 2.67796 0)
(53.2152 3.07916 0)
(53.9108 3.51645 -2.46789e-19)
(54.5972 3.99536 -2.21188e-19)
(55.318 4.46666 -5.21937e-19)
(56.0629 4.91581 4.92495e-20)
(56.7941 5.40929 5.69726e-20)
(57.6082 5.89631 1.43097e-19)
(58.4574 6.38762 -7.49359e-20)
(59.0829 6.8655 1.00292e-19)
(59.6322 7.24076 1.87929e-19)
(60.2197 7.70729 1.50302e-19)
(60.7932 8.1616 5.21973e-19)
(61.5405 8.58701 1.21771e-19)
(61.9449 8.80223 -7.48019e-19)
(61.8863 8.90449 -5.44785e-19)
(60.487 8.99864 -1.74933e-18)
(55.6229 8.46527 2.08627e-18)
(43.4677 6.7234 -9.49262e-19)
(19.8491 2.83944 0)
(-0.161451 0.459217 0)
(-4.01681 0.646082 3.67521e-19)
(38.2549 -0.129526 -4.13909e-18)
(41.6919 -0.29504 -1.53629e-18)
(41.8474 -0.230499 1.70376e-18)
(41.8998 -0.371301 -5.90869e-20)
(41.9817 -0.351592 -4.20211e-18)
(42.0958 -0.467537 7.28594e-20)
(42.2383 -0.481357 0)
(42.4108 -0.579086 2.84341e-18)
(42.62 -0.637361 9.78951e-20)
(42.8545 -0.717381 -1.07836e-21)
(43.1275 -0.785474 -3.95253e-18)
(43.4406 -0.845392 1.98458e-18)
(43.7884 -0.891026 2.19791e-21)
(44.1712 -0.920511 -1.11698e-18)
(44.5823 -0.930864 0)
(45.0044 -0.921922 0)
(45.4474 -0.906108 -1.46547e-18)
(45.9395 -0.880386 -2.04668e-18)
(46.4929 -0.843972 0)
(47.0703 -0.769504 1.0681e-18)
(47.6804 -0.652487 1.15186e-18)
(48.3213 -0.488457 2.9875e-19)
(48.9547 -0.275294 -3.64294e-19)
(49.6358 -0.0357167 -1.03411e-18)
(50.3586 0.241828 -3.76488e-19)
(51.1148 0.606242 -3.69107e-19)
(51.881 1.01418 1.2239e-18)
(52.6449 1.45438 8.34626e-19)
(53.3768 1.89414 -8.1031e-19)
(54.0634 2.35255 8.03898e-19)
(54.7609 2.80462 0)
(55.4813 3.24643 0)
(56.1712 3.7239 6.0205e-20)
(56.8139 4.22514 3.29831e-19)
(57.4653 4.67755 -1.92349e-19)
(58.0341 5.14474 -1.10082e-19)
(58.5732 5.58733 2.24789e-20)
(59.3147 6.03366 -2.04964e-19)
(60.0783 6.52948 -3.89082e-19)
(60.7423 6.88029 -3.68768e-19)
(61.4519 7.21604 -1.05198e-19)
(62.065 7.63397 5.55952e-19)
(62.1469 7.92015 0)
(61.5394 8.21082 5.38743e-19)
(58.7402 8.16226 6.67036e-19)
(50.687 7.4206 7.59322e-19)
(33.235 5.10382 2.61813e-18)
(6.52706 1.38651 -9.9388e-19)
(-3.66755 0.986599 0)
(-4.21054 0.616654 0)
(37.9894 -0.1034 1.03896e-20)
(41.6182 -0.297904 3.06411e-18)
(41.7702 -0.253758 -1.75416e-18)
(41.8291 -0.40388 3.76065e-18)
(41.8894 -0.396289 2.22282e-18)
(41.9865 -0.537311 -3.34821e-22)
(42.1181 -0.585694 -8.02349e-20)
(42.2779 -0.711205 -2.66126e-18)
(42.479 -0.798705 -1.96315e-19)
(42.7067 -0.913839 -2.1458e-19)
(42.9685 -1.02089 1.90906e-18)
(43.2732 -1.13761 2.63259e-19)
(43.6234 -1.25023 2.29795e-18)
(44.0179 -1.35 2.51908e-18)
(44.4693 -1.43604 -3.40987e-19)
(44.9692 -1.4883 3.80366e-19)
(45.4977 -1.49883 0)
(46.0546 -1.46939 1.77523e-18)
(46.6535 -1.40229 0)
(47.2622 -1.30893 0)
(47.8687 -1.17376 0)
(48.497 -1.01362 5.82938e-19)
(49.1508 -0.816955 -1.93713e-18)
(49.8251 -0.588433 1.36334e-18)
(50.5151 -0.330203 0)
(51.1485 -0.086582 3.55824e-19)
(51.7929 0.182961 1.11264e-18)
(52.4985 0.489306 1.54168e-18)
(53.253 0.84102 1.1757e-18)
(54.0112 1.22306 -8.09872e-19)
(54.747 1.64001 7.48503e-19)
(55.4738 2.09755 -3.84073e-19)
(56.2356 2.53595 -6.0073e-19)
(56.9991 2.98228 0)
(57.7367 3.48794 -1.32813e-19)
(58.5833 3.98467 9.6548e-20)
(59.4624 4.5084 -8.31907e-20)
(60.072 4.98382 2.0276e-19)
(60.5798 5.36902 2.00528e-19)
(61.165 5.87356 0)
(61.8063 6.48065 4.64282e-19)
(62.1547 6.87399 -6.61408e-19)
(62.0643 7.04916 1.60047e-18)
(60.5952 7.25662 0)
(55.5019 7.11308 -2.5364e-18)
(43.404 5.96543 6.85596e-19)
(20.4196 3.21225 -8.39347e-19)
(-0.450023 1.40864 -9.40396e-19)
(-5.58925 1.60961 2.06139e-18)
(-4.02982 0.855067 1.64424e-20)
(37.7106 -0.138325 2.74304e-18)
(41.5535 -0.338065 -3.0389e-18)
(41.7002 -0.282568 3.37726e-18)
(41.748 -0.448731 -7.49878e-18)
(41.7928 -0.440368 4.28693e-18)
(41.8757 -0.589691 -2.87848e-19)
(41.984 -0.651063 2.71143e-18)
(42.122 -0.802404 0)
(42.3021 -0.921157 3.11979e-18)
(42.5219 -1.07351 -3.65691e-18)
(42.7772 -1.21506 2.81515e-21)
(43.0729 -1.35743 2.62199e-19)
(43.4148 -1.49903 -2.29023e-18)