/*--------------------------------*- C++ -*----------------------------------*\
| =========                 |                                                 |
| \\      /  F ield         | OpenFOAM: The Open Source CFD Toolbox           |
|  \\    /   O peration     | Version:  v1912                                 |
|   \\  /    A nd           | Website:  www.openfoam.com                      |
|    \\/     M anipulation  |                                                 |
\*---------------------------------------------------------------------------*/
FoamFile
{
    version     2.0;
    format      ascii;
    class       volScalarField;
    location    "0.5";
    object      p;
}
// * * * * * * * * * * * * * * * * * * * * * * * * * * * * * * * * * * * * * //

dimensions      [0 2 -2 0 0 0 0];


internalField   nonuniform List<scalar> 
6600
(
321.434
317.192
315.186
314.056
313.355
312.961
312.877
313.02
313.341
313.874
314.598
315.542
316.743
318.201
319.877
321.745
323.784
326.036
328.563
331.269
334.088
336.954
340.079
343.444
346.935
350.526
353.956
357.164
360.26
363.233
365.891
368.248
369.86
370.798
370.933
370.002
367.536
362.88
355.692
345.818
332.874
316.113
294.756
268.074
235.579
196.363
149.798
96.889
32.2821
-37.3953
318.982
315.16
313.725
312.505
311.637
311.201
311.01
310.993
311.12
311.477
312.035
312.773
313.67
314.76
316.097
317.669
319.418
321.226
323.202
325.308
327.464
329.533
331.584
333.84
336.085
338.342
340.703
342.803
344.494
345.751
346.533
346.752
346.15
344.383
341.552
337.393
331.597
323.592
312.692
298.63
281.199
259.74
233.477
201.605
163.636
118.543
65.9576
6.32547
-62.466
-135.053
316.011
312.465
311.669
310.523
309.689
309.223
308.958
308.844
308.9
309.155
309.585
310.193
310.93
311.728
312.62
313.634
314.937
316.364
317.778
319.181
320.646
322.111
323.365
324.513
325.646
326.451
327.003
327.382
327.501
327.084
325.845
323.83
320.852
316.46
310.583
303.08
293.653
281.877
267.112
248.945
227.044
200.652
169.303
132.33
89.1891
38.9012
-18.9049
-83.4462
-154.019
-225.198
312.826
309.448
309.211
308.211
307.531
307.06
306.72
306.535
306.562
306.753
307.071
307.483
308.016
308.636
309.323
309.98
310.671
311.495
312.429
313.195
313.732
314.234
314.647
314.714
314.445
313.989
313.132
311.702
309.705
307.169
303.837
299.414
293.833
286.672
277.809
266.878
253.722
238.039
219.242
196.892
170.544
139.653
103.672
62.0147
14.1971
-40.3743
-102.017
-169.298
-240.109
-307.731
309.483
306.337
306.437
305.415
304.89
304.442
304.055
303.838
303.787
303.859
304.069
304.339
304.636
304.938
305.271
305.681
305.973
306.099
306.186
306.344
306.254
305.748
305.008
304.089
302.654
300.461
297.827
294.685
290.796
285.912
280.092
273.132
264.873
254.817
242.871
228.752
212.008
192.454
169.68
143.194
112.661
77.6425
37.7209
-7.63209
-58.8492
-116.306
-180.157
-248.662
-318.415
-380.909
306.09
303.114
303.341
302
301.606
301.16
300.73
300.523
300.338
300.23
300.173
300.189
300.267
300.355
300.341
300.248
300.065
299.786
299.032
298.071
297.022
295.603
293.627
291.166
288.516
285.231
280.997
275.87
269.864
262.862
254.422
244.676
233.475
220.573
205.581
188.199
168.167
145.113
118.752
88.7028
54.6776
16.3377
-26.6583
-74.6391
-127.877
-186.704
-251.283
-319.843
-387.322
-442.821
302.588
299.662
299.84
298.177
297.923
297.303
296.833
296.479
296.161
295.892
295.601
295.276
294.889
294.508
294.083
293.442
292.526
291.429
290.121
288.289
286.053
283.511
280.605
276.833
272.244
267.128
261.256
254.413
246.316
236.981
226.252
213.995
199.986
184.085
166.173
145.848
122.74
96.5989
67.155
34.248
-2.38409
-43.0701
-87.9976
-137.383
-191.414
-250.309
-314.293
-381.518
-445.29
-492.167
298.722
295.904
295.969
294.342
293.909
293.199
292.591
292.048
291.517
290.947
290.337
289.676
288.862
287.861
286.699
285.415
283.876
281.857
279.467
276.648
273.238
269.171
264.683
259.748
253.88
247.046
239.166
230.209
220.115
208.553
195.527
180.788
164.297
145.812
125.105
102.073
76.4363
47.8885
16.2213
-18.7866
-57.2154
-99.2395
-145.025
-194.694
-248.424
-306.51
-368.654
-432.948
-492.016
-529.221
294.484
291.739
291.726
290.186
289.659
288.864
288.123
287.385
286.604
285.744
284.752
283.591
282.247
280.655
278.702
276.422
273.861
271.047
267.693
263.79
259.365
254.204
248.02
241.175
233.411
224.725
215.012
204.031
191.673
177.994
162.792
145.888
127.058
106.226
83.3072
58.0434
30.2999
-0.0940585
-33.3089
-69.4372
-108.687
-151.149
-196.829
-245.816
-298.229
-354.474
-414.241
-474.671
-527.865
-555.645
289.888
287.321
287.196
285.639
284.97
284.065
283.199
282.29
281.248
280.067
278.739
277.16
275.277
273.058
270.545
267.535
263.973
259.88
255.304
250.051
244.101
237.598
230.168
221.706
212.305
201.705
189.873
176.837
162.477
146.637
129.222
110.21
89.4546
66.6903
41.8297
14.8438
-14.4075
-46.0001
-80.0668
-116.758
-156.075
-198.087
-242.813
-290.31
-340.657
-394.089
-450.624
-506.764
-554.112
-574.497
284.765
282.458
282.28
280.694
279.971
278.888
277.835
276.719
275.466
273.98
272.243
270.221
267.872
265.063
261.796
257.983
253.697
248.681
243.035
236.714
229.472
221.258
212.225
201.934
190.61
178.24
164.602
149.499
133.052
115.19
95.8609
74.9152
52.2666
27.8947
1.66261
-26.5325
-56.7035
-88.9786
-123.369
-159.856
-198.578
-239.53
-282.619
-327.856
-375.498
-425.627
-477.812
-529.253
-571.979
-587.595
279.072
277.126
276.889
275.41
274.711
273.456
272.208
270.85
269.262
267.435
265.323
262.823
259.978
256.793
253.007
248.588
243.38
237.341
230.44
222.878
214.44
204.915
194.355
182.716
169.752
155.406
139.861
123.053
104.771
84.9696
63.695
40.977
16.7571
-9.04904
-36.46
-65.5179
-96.2543
-128.575
-162.614
-198.469
-236.043
-275.321
-316.284
-358.775
-402.742
-448.872
-495.623
-540.781
-577.196
-591.247
272.88
271.497
271.251
269.908
269.214
267.888
266.513
264.969
263.086
260.898
258.415
255.504
252.061
248.09
243.598
238.627
232.905
226.357
218.778
210.086
200.32
189.509
177.388
164.056
149.531
133.657
116.298
97.5596
77.5251
56.0978
33.2418
8.98119
-16.6153
-43.5431
-71.789
-101.317
-132.173
-164.45
-197.935
-232.563
-268.466
-305.578
-343.753
-383.029
-423.304
-464.15
-503.857
-539.111
-563.166
-575.09
266.804
265.803
265.569
264.399
263.661
262.312
260.935
259.203
257.116
254.684
251.843
248.604
244.894
240.516
235.449
229.508
222.809
215.363
206.991
197.44
186.823
174.891
161.719
147.103
130.953
113.457
94.6091
74.2688
52.4891
29.3458
4.86573
-20.8801
-47.759
-75.6397
-104.508
-134.349
-165.062
-196.556
-229.034
-262.404
-296.426
-331.014
-366.066
-401.338
-437.212
-472.089
-503.45
-526.968
-537.322
-545.205
260.893
260.26
260.001
258.95
258.183
256.844
255.482
253.732
251.581
249.077
246.033
242.395
238.166
233.384
227.925
221.665
214.452
206.267
197.085
186.772
175.131
162.093
147.604
131.725
114.335
95.3415
74.8462
52.9304
29.5749
4.86822
-21.0592
-48.0647
-76.1077
-105.034
-134.566
-164.542
-194.989
-225.958
-257.218
-288.77
-320.623
-352.54
-384.217
-415.855
-446.347
-474.365
-498.28
-514.878
-521.711
-524.684
254.823
254.717
254.516
253.645
252.999
251.725
250.333
248.546
246.378
243.836
240.831
237.282
233.029
227.953
221.951
215.173
207.463
198.696
188.829
177.852
165.42
151.655
136.318
119.31
100.703
80.4463
58.4534
34.8438
9.75585
-16.6812
-44.3559
-73.0266
-102.305
-132.003
-162.03
-192.243
-222.424
-252.459
-282.6
-312.696
-342.441
-371.782
-400.636
-428.466
-454.431
-477.59
-495.4
-505.652
-513.567
-514.103
248.867
249.278
249.228
248.633
248.097
246.984
245.739
243.987
241.873
239.287
236.142
232.467
228.257
223.337
217.593
210.792
202.941
193.942
183.647
171.946
158.835
144.157
127.885
109.903
90.1995
68.6743
45.3066
20.1732
-6.61583
-34.8855
-64.356
-94.7395
-125.832
-157.164
-188.234
-218.716
-248.61
-278.021
-306.818
-335.157
-363.099
-390.427
-416.643
-441.289
-463.926
-483.017
-497.03
-503.745
-507.139
-508.035
243.659
244.368
244.387
244.026
243.637
242.664
241.557
239.924
237.955
235.612
232.708
229.149
224.91
219.947
214.28
207.645
199.905
190.989
180.768
169.016
155.727
140.664
123.833
105.139
84.427
61.6075
36.7611
9.90724
-18.8128
-49.1942
-81.0316
-113.83
-146.945
-179.955
-212.464
-244.021
-274.167
-302.886
-330.714
-357.749
-383.972
-409.361
-433.362
-455.722
-475.386
-490.713
-499.497
-505.703
-506.406
-506.952
239.072
240.063
239.948
239.88
239.686
238.941
238.044
236.606
234.758
232.465
229.684
226.462
222.634
218.06
212.671
206.424
199.136
190.558
180.556
169.047
155.768
140.592
123.361
104.263
82.9573
59.1743
33.0098
4.51995
-26.2047
-58.8688
-93.1918
-128.902
-165.345
-201.528
-236.517
-269.577
-300.442
-329.125
-355.879
-381.391
-405.819
-429.044
-451.036
-471.253
-487.85
-498.448
-505.389
-507.881
-508.78
-508.809
234.742
236.111
236.064
236.297
236.175
235.624
234.963
233.811
232.401
230.458
227.917
224.875
221.276
217.074
212.102
206.288
199.578
191.725
182.525
171.777
159.253
144.691
127.907
108.63
86.7166
62.2984
35.0688
5.00273
-27.8446
-63.337
-101.066
-140.301
-180.487
-220.79
-259.83
-296.116
-328.52
-357.188
-383.112
-407
-429.228
-449.674
-469.04
-486.576
-500.261
-507.676
-511.431
-512.728
-513.262
-512.903
230.587
232.418
232.418
233.207
233.285
232.928
232.47
231.476
230.277
228.663
226.638
224.117
220.992
217.291
212.948
207.838
201.821
194.784
186.531
176.712
165.144
151.38
135.4
116.862
95.5067
70.8796
42.941
11.6241
-23.168
-61.1947
-102.274
-146.197
-191.902
-237.946
-282.712
-324.151
-360.378
-390.261
-414.888
-435.778
-454.211
-471.631
-487.844
-501.129
-509.916
-515.951
-517.923
-519.273
-519.768
-519.323
226.757
229.052
229.115
230.276
230.617
230.607
230.505
229.876
228.976
227.573
225.828
223.682
221.059
217.911
214.219
209.934
204.867
198.959
191.997
183.702
173.787
161.874
147.291
129.748
109.083
84.9396
56.9995
24.9172
-11.3979
-52.2351
-97.0886
-145.532
-197.294
-251.099
-304.592
-354.484
-396.588
-428.981
-452.37
-469.416
-482.607
-494.741
-506.265
-514.035
-519.696
-523.119
-525.698
-527.519
-528.448
-528.394
223.094
225.92
225.958
227.734
228.277
228.63
228.725
228.387
227.803
226.774
225.438
223.68
221.536
219.023
216.05
212.625
208.632
203.905
198.327
191.672
183.504
173.507
161.132
145.731
126.76
104.31
77.6386
45.6077
8.3703
-34.4474
-83.145
-137.095
-195.784
-258.794
-323.638
-385.759
-439.344
-478.336
-501.274
-512.189
-516.879
-520.693
-524.008
-528.687
-532.242
-534.879
-536.886
-538.064
-538.958
-539.286
219.362
222.862
222.795
225.286
226.013
226.864
227.342
227.333
226.961
226.12
225.019
223.602
221.837
219.805
217.46
214.836
211.912
208.504
204.521
199.816
194.006
186.677
177.276
164.863
148.355
127.503
102.58
72.6759
35.8135
-7.968
-59.001
-117.81
-184.106
-257.608
-336.581
-416.71
-489.693
-543.097
-568.196
-569.714
-559.154
-550.202
-548.053
-549.228
-551.366
-552.464
-552.346
-551.915
-551.086
-551.147
215.456
219.819
219.639
222.919
223.772
224.987
225.886
226.3
226.312
225.804
224.913
223.67
222.19
220.498
218.665
216.665
214.561
212.32
209.787
206.868
203.327
198.694
192.409
183.87
172.033
155.343
133.009
105.529
70.9063
27.6259
-24.9149
-87.1602
-159.801
-243.532
-339.52
-443.311
-545.095
-625.684
-662.351
-649.598
-615.242
-591.264
-580.887
-576.576
-574.122
-572.115
-568.754
-565.091
-562.774
-561.942
211.08
217.043
216.095
220.336
221.589
223.24
224.471
225.243
225.563
225.362
224.722
223.6
222.221
220.629
218.937
217.322
215.796
214.425
213.212
212.115
210.932
209.303
206.687
202.467
195.691
184.743
167.266
143.167
112.395
72.4304
21.0351
-42.9506
-120.894
-214.802
-326.441
-455.732
-596.286
-722.203
-789.288
-766.785
-703.134
-655.76
-626.111
-609.508
-599.833
-589.377
-582.397
-575.463
-569.907
-566.474
205.606
214.144
212.296
217.637
219.272
221.409
223.188
224.399
225.087
225.157
224.699
223.72
222.32
220.701
218.937
217.229
215.935
215.041
214.645
214.854
215.657
216.776
217.698
217.727
215.803
210.853
200.77
183.191
157.841
123.288
76.4423
14.5451
-64.6059
-164.625
-290.882
-448.878
-635.457
-828.733
-962.359
-938.978
-838.14
-756.768
-701.545
-658.285
-636.053
-615.416
-599.896
-587.802
-578.629
-573.202
198.662
210.929
208.23
214.71
216.862
219.594
221.939
223.542
224.56
224.864
224.523
223.625
222.162
220.233
218.301
216.166
214.511
213.639
213.643
214.705
217.124
220.829
225.38
230.161
234.025
235.421
232.974
223.326
205.455
178.516
139.377
84.0699
8.2589
-93.1777
-228.73
-409.17
-636.229
-901.77
-1126.37
-1136.94
-997.868
-874.02
-780.416
-711.522
-670.494
-639.337
-616.222
-598.599
-586.632
-579.897
189.35
207.794
203.834
211.299
214.258
217.671
220.59
222.801
224.254
224.764
224.565
223.728
222.225
219.989
217.549
215.074
212.691
211.234
211.223
212.521
215.714
221.105
228.577
237.411
246.727
254.956
260.232
260.699
252.587
234.282
205.247
161.151
95.5651
0.41141
-134.911
-325.226
-586.815
-921.304
-1239.9
-1317.41
-1169.16
-981.875
-852.146
-757.741
-696.734
-655.573
-625.783
-604.022
-590.832
-584.147
157.569
196.284
199.111
207.599
211.36
215.559
218.757
221.272
223.365
224.484
224.302
223.317
221.604
219.18
215.835
212.525
209.211
206.992
206.309
207.369
210.559
217.178
227.075
239.363
254.303
272.103
286.559
294.884
297.047
289.366
271.049
238.305
185.659
103.148
-24.7253
-217.454
-492.145
-841.332
-1232.1
-1362.09
-1239.62
-1042.3
-896.764
-788.361
-713.257
-663.431
-629.003
-604.155
-591.268
-585.833
249.959
245.306
242.931
241.509
240.537
239.964
239.314
238.547
237.767
237.065
236.362
235.623
234.782
233.903
233.062
232.22
231.497
230.734
229.874
228.864
227.509
226.043
224.488
222.784
220.734
218.377
215.731
212.697
209.039
204.456
198.744
191.823
183.669
173.82
162.005
147.784
130.66
110.266
85.962
57.0044
22.7332
-17.5723
-64.6565
-119.482
-182.982
-256.298
-339.769
-432.295
-543.126
-664.203
246.978
242.191
240.562
239.029
237.682
236.586
235.558
234.484
233.45
232.46
231.465
230.413
229.248
228.027
226.818
225.43
223.922
222.403
220.743
218.941
217.063
214.687
211.973
208.986
205.616
201.732
197.213
192.184
186.463
179.681
171.462
161.692
150.382
137.245
121.802
103.468
81.7235
56.0676
25.9894
-9.10491
-49.9693
-97.4631
-152.074
-215.157
-287.606
-370.565
-464.106
-566.878
-686.263
-817.378
242.918
238.051
237.133
235.42
233.812
232.351
231.013
229.697
228.441
227.157
225.795
224.345
222.824
221.211
219.479
217.715
215.66
213.408
210.951
208.06
204.988
201.633
197.803
193.474
188.65
183.277
177.118
169.961
161.819
152.481
141.646
128.903
114.111
97.1233
77.378
54.3612
27.6207
-3.44483
-39.4437
-81.0016
-128.86
-183.71
-245.916
-317.278
-398.354
-490.456
-593.408
-705.802
-830.166
-963.644
238.212
233.262
232.75
230.53
228.799
227.188
225.598
224.037
222.488
220.88
219.137
217.252
215.307
213.231
210.874
208.375
205.664
202.601
199.257
195.623
191.388
186.8
181.68
175.95
169.465
162.203
154.177
144.915
134.164
121.865
107.912
91.9272
73.5607
52.6899
28.4715
0.546542
-31.4421
-68.1267
-110.268
-158.054
-212.674
-274.722
-344.826
-424.129
-513.348
-613.596
-724.802
-844.801
-971.902
-1103.47
233.103
227.922
227.641
224.916
223.125
221.394
219.639
217.803
215.873
213.817
211.629
209.265
206.696
203.913
200.945
197.705
194.218
190.34
185.911
181.068
175.668
169.7
163.138
155.91
147.821
138.586
128.15
116.486
103.246
88.2301
71.0615
51.4579
29.1388
4.16903
-24.6126
-57.4069
-94.6773
-136.91
-184.809
-239.075
-300.313
-369.247
-446.61
-533.011
-629.209
-736.36
-854.13
-979.564
-1108.32
-1236.77
227.417
222.06
221.916
218.824
217.195
215.295
213.274
211.111
208.809
206.319
203.673
200.809
197.695
194.209
190.278
186.016
181.442
176.531
171.204
165.273
158.639
151.154
142.865
133.713
123.649
112.464
99.8773
85.6181
69.4966
51.456
31.0618
8.05106
-18.0887
-47.6077
-80.8962
-118.424
-160.682
-208.307
-261.951
-322.075
-389.203
-464.271
-547.834
-640.314
-742.278
-854.709
-977.404
-1107.18
-1237.26
-1361.78
221.175
215.849
215.846
212.355
210.844
208.742
206.451
204.005
201.351
198.469
195.348
191.888
188.11
184.004
179.445
174.346
168.686
162.432
155.616
148.269
140.266
131.377
121.495
110.423
98.0909
84.4408
69.3355
52.5424
33.7729
12.567
-11.3216
-37.9923
-67.896
-101.457
-139.016
-181.116
-228.235
-280.835
-339.511
-404.959
-477.664
-558.016
-646.527
-743.564
-849.604
-965.695
-1091.88
-1224.98
-1355.91
-1474.95
214.517
209.4
209.413
205.623
204.097
201.629
199.079
196.319
193.345
190.082
186.453
182.486
178.045
173.06
167.65
161.702
155.192
148.03
140.069
131.197
121.444
110.746
99.0914
86.0641
71.6543
55.6483
37.8575
18.1772
-3.60539
-27.7713
-54.799
-84.9751
-118.639
-156.177
-197.922
-244.288
-295.743
-352.847
-416.152
-486.071
-562.952
-647.396
-739.737
-840.213
-949.115
-1067.41
-1195.69
-1330.87
-1461.41
-1572.45
207.514
202.7
202.565
198.5
196.991
194.129
191.309
188.198
184.778
181.011
176.781
172.117
167.029
161.443
155.254
148.38
140.752
132.348
123.169
113.063
101.854
89.5177
75.9317
60.9147
44.289
25.9118
5.62293
-16.7179
-41.4379
-68.8391
-99.1412
-132.668
-169.773
-210.872
-256.369
-306.562
-361.914
-422.897
-489.894
-563.396
-643.849
-731.388
-826.306
-928.814
-1039.17
-1158.36
-1287.18
-1422.63
-1550.61
-1649.9
200.138
195.735
195.5
191.378
189.827
186.564
183.412
179.925
176.03
171.678
166.88
161.509
155.478
148.899
141.737
133.975
125.418
115.96
105.436
93.8536
81.0951
67.0686
51.6871
34.8683
16.3649
-4.13805
-26.9001
-52.0228
-79.5684
-109.772
-143.062
-179.755
-220.079
-264.411
-313.156
-366.671
-425.269
-489.323
-559.271
-635.45
-718.011
-807.415
-903.926
-1007.63
-1118.61
-1237.54
-1365.11
-1498.41
-1621.7
-1707.22
192.518
188.777
188.354
184.449
182.764
179.149
175.786
171.855
167.407
162.433
156.906
150.879
144.202
136.76
128.49
119.438
109.562
98.8442
87.0525
74.1021
59.9078
44.2636
27.0089
8.07265
-12.5412
-35.0334
-59.6965
-86.8923
-116.933
-149.932
-185.952
-225.357
-268.493
-315.642
-367.119
-423.238
-484.371
-550.841
-622.824
-700.653
-784.776
-875.237
-972.189
-1075.76
-1186.06
-1303.61
-1428.36
-1556.98
-1674.15
-1745.64
185.06
182.077
181.402
177.817
175.822
171.946
168.373
164.06
159.156
153.701
147.528
140.633
133.062
124.771
115.657
105.622
94.5226
82.3951
69.1849
54.6778
38.8572
21.6407
2.8554
-17.8067
-40.4313
-65.1581
-92.1446
-121.545
-153.556
-188.616
-227.016
-268.85
-314.303
-363.678
-417.268
-475.36
-538.233
-606.112
-679.323
-758.123
-842.529
-932.878
-1029.37
-1131.99
-1240.7
-1355.8
-1476.58
-1599.17
-1708.41
-1766.29
178.173
175.869
174.903
171.628
169.235
165.287
161.4
156.673
151.347
145.37
138.746
131.336
123.033
113.825
103.681
92.6114
80.4605
67.1274
52.6046
36.7988
19.4525
0.456899
-20.1847
-42.6199
-67.0128
-93.5196
-122.324
-153.696
-187.84
-224.839
-265.001
-308.65
-355.941
-407.092
-462.358
-521.897
-585.925
-654.709
-728.358
-807.077
-891.188
-980.715
-1075.69
-1176.13
-1282.02
-1393.52
-1510.09
-1626.11
-1725.42
-1770.74
172.147
170.39
169.105
166.079
163.418
159.372
155.167
150.092
144.42
137.968
130.697
122.689
113.84
104.047
93.1543
81.164
68.0237
53.6321
37.8051
20.6361
2.01514
-18.2552
-40.3481
-64.4168
-90.5693
-119.003
-149.794
-183.016
-218.834
-257.605
-299.481
-344.675
-393.412
-445.753
-501.894
-562.137
-626.653
-695.522
-768.93
-847.035
-929.853
-1017.49
-1110.09
-1207.64
-1310.1
-1417.54
-1528.97
-1638.27
-1727.87
-1761.45
167.208
165.83
164.494
161.598
158.733
154.63
150.124
144.703
138.665
131.901
124.262
115.683
106.155
95.6779
84.1624
71.4829
57.512
42.2712
25.5889
7.245
-12.8069
-34.5419
-58.0304
-83.4615
-110.959
-140.665
-172.893
-207.767
-245.302
-285.538
-328.741
-375.08
-424.766
-478.102
-535.15
-595.855
-660.353
-728.85
-801.402
-878.104
-959.032
-1044.26
-1133.74
-1227.45
-1325.39
-1427.57
-1533.13
-1635.84
-1717.01
-1741.13
163.695
162.525
161.098
158.261
155.245
151.095
146.503
140.916
134.55
127.33
119.356
110.434
100.478
89.422
77.2793
63.9563
49.3151
33.1953
15.6371
-3.4399
-24.2669
-47.0091
-71.7516
-98.5585
-127.49
-158.579
-192.07
-228.139
-266.924
-308.495
-352.958
-400.443
-451.015
-504.706
-561.768
-622.379
-686.545
-754.238
-825.497
-900.357
-978.899
-1061
-1146.71
-1235.98
-1328.69
-1425.06
-1522.81
-1616.54
-1688.92
-1710.4
161.715
160.618
159.095
156.28
153.19
148.943
144.238
138.598
132.241
124.851
116.526
107.259
96.9894
85.5644
72.9326
59.0198
43.8346
27.156
8.80331
-11.2628
-33.0344
-56.6297
-82.2163
-109.882
-139.716
-171.841
-206.442
-243.622
-283.389
-325.866
-371.151
-419.324
-470.504
-524.797
-582.15
-642.562
-706.045
-772.634
-842.32
-915.105
-990.778
-1069.46
-1151.09
-1235.47
-1321.95
-1410.59
-1498.58
-1579.59
-1637.19
-1659.01
161.294
160.008
158.541
155.622
152.562
148.328
143.616
137.858
131.466
124.137
115.807
106.392
95.8939
84.2414
71.3008
56.9514
41.1789
23.9914
5.26255
-15.2477
-37.6832
-62.1259
-88.6293
-117.249
-148.125
-180.9
-216.476
-254.465
-295.023
-338.287
-384.335
-433.157
-484.719
-539.068
-596.287
-656.285
-719.05
-784.523
-852.543
-923.005
-995.99
-1071.03
-1147.98
-1226.7
-1307.15
-1387.67
-1463.23
-1526.18
-1564.03
-1583.03
162.403
160.743
159.277
156.327
153.333
149.093
144.517
138.882
132.538
125.231
117.016
107.718
97.22
85.4998
72.4466
57.9578
41.8662
24.1257
4.76448
-16.2575
-39.116
-63.9963
-91.0148
-120.269
-151.804
-185.638
-221.917
-260.662
-301.926
-345.759
-392.326
-441.618
-493.608
-548.171
-605.272
-664.956
-727.042
-791.365
-857.857
-926.323
-996.311
-1067.9
-1140.81
-1214.35
-1287.86
-1359.17
-1423.2
-1468.81
-1485.75
-1499.78
164.859
162.726
161.392
158.331
155.544
151.313
146.913
141.453
135.433
128.304
120.269
111.193
100.849
89.1937
76.1658
61.6906
45.6499
27.9002
8.27509
-13.232
-36.6643
-62.109
-89.6745
-119.47
-151.63
-186.125
-223.092
-262.504
-304.483
-348.886
-395.841
-445.444
-497.665
-552.528
-609.831
-669.284
-730.824
-794.337
-859.465
-925.979
-993.864
-1062.39
-1131.09
-1199.36
-1267.42
-1331.31
-1385.49
-1420.66
-1429.65
-1435.86
168.508
165.81
164.604
161.42
158.967
154.495
150.996
145.326
139.874
133.032
125.337
116.703
106.679
95.3312
82.556
68.1995
52.1591
34.3861
14.7665
-6.85642
-30.5614
-56.3824
-84.4041
-114.688
-147.332
-182.414
-219.979
-260.202
-303.018
-348.034
-395.578
-445.81
-498.503
-553.46
-610.707
-670.173
-731.561
-794.579
-859.011
-924.435
-990.206
-1056.4
-1122.69
-1188.24
-1251.17
-1307.56
-1352.01
-1377.78
-1390.13
-1391.9
172.989
169.723
168.638
165.303
163.169
159.105
155.722
150.821
145.516
139.145
131.673
124.082
114.31
103.396
91.1105
77.2557
61.6169
44.0428
24.4846
2.83448
-21.0376
-47.1876
-75.6517
-106.47
-139.665
-175.292
-213.422
-254.168
-297.597
-343.588
-391.705
-442.283
-495.459
-551.195
-609.114
-668.957
-730.546
-793.486
-857.406
-922.034
-987.259
-1052.3
-1116.18
-1178.92
-1238.84
-1290.67
-1325.08
-1337.58
-1349.68
-1353.06
177.838
174.084
173.185
169.828
167.825
164.339
161.086
156.839
152.071
146.419
139.792
132.332
123.49
113.156
101.358
87.9938
72.8773
55.7957
36.5601
15.1199
-8.6141
-34.7863
-63.4936
-94.6948
-128.446
-164.721
-203.517
-244.832
-288.814
-335.618
-384.982
-436.47
-490.382
-546.595
-605.082
-665.613
-727.773
-791.425
-855.96
-920.851
-985.665
-1050.37
-1113.86
-1174.94
-1230.48
-1276.5
-1305.12
-1310.69
-1314.37
-1321.22
182.798
178.744
177.821
174.736
172.688
169.707
166.708
163.018
158.848
153.904
148.135
141.47
133.595
124.291
113.332
100.666
86.174
69.6508
50.895
29.7472
6.12877
-19.988
-48.7852
-80.2974
-114.461
-151.388
-190.938
-233.166
-278.021
-325.475
-375.679
-428.137
-482.933
-540.019
-599.526
-661.159
-724.647
-789.274
-854.679
-920.333
-986.081
-1051.5
-1114.99
-1173.97
-1226.08
-1264.85
-1283.02
-1293.53
-1290.42
-1297.46
187.455
183.588
182.361
179.619
177.589
174.906
172.249
169.123
165.623
161.465
156.58
150.785
143.89
135.632
125.794
114.168
100.548
84.7948
66.7603
46.2328
22.9939
-2.97273
-31.6834
-63.3474
-97.9171
-135.339
-175.559
-218.543
-264.267
-312.8
-364.079
-417.75
-473.931
-532.375
-592.962
-655.665
-720.471
-787.066
-854.458
-922.016
-989.035
-1054.9
-1118.85
-1177.23
-1225.23
-1255.19
-1263.18
-1271.39
-1272.51
-1278.1
191.662
188.357
186.259
184.275
182.271
179.862
177.539
174.903
172.019
168.677
164.76
160.013
154.239
147.192
138.641
128.257
115.789
100.942
83.7333
63.9094
41.2692
15.6188
-13.0582
-44.7478
-79.6684
-117.732
-158.815
-202.784
-249.633
-299.173
-351.558
-406.504
-463.734
-523.357
-585.265
-649.664
-716.246
-784.779
-854.719
-924.763
-994.494
-1062.43
-1126.43
-1183.16
-1226.03
-1244.74
-1251.49
-1254.04
-1259.26
-1263.27
194.832
193.426
189.656
188.523
186.411
184.424
182.498
180.349
178.056
175.404
172.313
168.578
163.943
158.147
150.957
142.025
130.985
117.547
101.444
82.5589
60.666
35.5832
7.22243
-24.5007
-59.5506
-98.0357
-139.814
-184.821
-232.914
-283.914
-337.82
-394.49
-453.632
-514.604
-577.879
-643.386
-711.742
-782.912
-855.976
-929.832
-1003.41
-1073.46
-1136.86
-1193.31
-1230.72
-1235.78
-1242.63
-1242.67
-1249.16
-1252.88
196.444
198.624
192.662
192.512
190.155
188.575
186.935
185.227
183.517
181.588
179.317
176.58
173.106
168.598
162.792
155.343
145.867
133.891
119.087
101.483
80.4267
55.9467
28.0131
-3.67755
-39.0942
-78.2122
-120.791
-166.837
-216.162
-268.595
-323.93
-382.396
-443.236
-506.199
-570.868
-637.673
-707.248
-780.706
-857.933
-936.783
-1014.35
-1087.54
-1151.63
-1203.51
-1234.48
-1235.65
-1233.41
-1236.13
-1240.81
-1244.45
195.567
203.809
195.657
196.131
193.573
192.263
190.865
189.448
188.259
186.872
185.298
183.374
180.909
177.726
173.472
167.618
159.698
149.414
136.351
120.146
100.208
76.795
49.3042
17.7443
-17.9067
-57.5595
-101.305
-148.671
-199.789
-254.03
-311.24
-371.787
-434.536
-499.386
-565.824
-633.771
-704.484
-779.302
-859.539
-944.939
-1029.38
-1106.47
-1175.55
-1219.56
-1224.95
-1236.95
-1229.24
-1231.58
-1234.24
-1236.77
172.282
201.864
198.261
198.861
196.486
195.252
194.036
193.059
192.464
191.705
190.759
189.461
187.678
185.344
182.081
177.806
171.76
163.263
151.825
136.962
118.359
96.2155
69.0051
37.0306
1.01548
-38.9718
-83.2971
-132.181
-184.778
-241.244
-301.107
-363.633
-429.228
-495.961
-564.056
-633.218
-704.135
-780.085
-861.981
-952.788
-1045.53
-1122.76
-1177.19
-1213.88
-1221.77
-1225.99
-1225.46
-1226.91
-1227.42
-1228.1
180.403
207.133
205.168
201.764
199.163
197.493
196.044
195.084
194.467
193.84
193.816
193.513
193.029
192.142
190.28
187.384
182.942
175.905
165.859
152.219
134.119
111.625
84.7556
52.6339
15.481
-25.9446
-71.1924
-121.399
-176.193
-234.305
-296.589
-362.051
-430.666
-500.646
-570.768
-641.454
-712.282
-786.03
-868.376
-963.407
-1071.55
-1169.44
-1229.98
-1232.57
-1236.19
-1226.03
-1224.72
-1221.65
-1219.1
-1217.73
192.686
205.249
203.954
202.315
200.807
199.181
197.914
196.99
196.757
196.951
197.25
197.787
198.217
198.243
197.51
195.18
191.047
184.218
173.915
159.504
140.385
116.515
88.3325
55.34
17.0663
-26.5747
-74.8678
-127.027
-184.702
-246.185
-310.745
-379.19
-450.516
-523.24
-595.308
-665.878
-735.052
-807.555
-892.3
-997.173
-1113.99
-1219.88
-1272.5
-1260.34
-1236.37
-1227.87
-1222.68
-1216.86
-1211.17
-1207.39
202.262
204.634
203.417
202.703
201.716
200.617
199.987
199.518
199.435
200.279
201.488
203.259
204.358
204.817
204.316
202.046
197.338
189.021
176.67
160.102
138.56
111.836
79.773
42.5605
0.900268
-44.5394
-95.3844
-151.327
-211.432
-276.295
-344.316
-415.487
-489.118
-563.41
-636.166
-705.825
-775.297
-846.753
-926.576
-1028.24
-1150.67
-1260.09
-1291.78
-1289.68
-1250.95
-1236.55
-1228.07
-1219.51
-1211.14
-1205.44
208.079
206.432
205.045
203.842
202.795
201.793
201.163
201.511
203.07
205.341
207.174
208.73
210.064
211.356
211.833
209.53
203.841
194.137
178.89
158.181
131.939
100.631
64.5756
22.6587
-25.1447
-76.8478
-131.337
-190.549
-254.599
-322.77
-394.073
-467.868
-543.096
-618.524
-692.203
-762.217
-825.945
-881.458
-947.842
-1042.31
-1160.24
-1259.36
-1290.7
-1277.3
-1263.86
-1260.02
-1256.29
-1245.31
-1232.36
-1223.76
211.69
209.193
207.893
205.641
203.823
202.892
203.131
204.521
206.934
209.773
212.493
215.616
219.167
220.902
220.035
217.517
211.226
199
180.509
156.032
125.301
87.6034
44.446
-2.81311
-54.5489
-111.173
-172.46
-237.276
-306.482
-379.837
-455.883
-533.252
-610.814
-686.354
-758.913
-822.867
-867.672
-905.764
-953.282
-1021.77
-1111.04
-1190.05
-1244.07
-1264.88
-1290.9
-1312.83
-1314
-1300.87
-1284.37
-1274.1
215.197
212.894
210.583
207.401
205.058
203.915
204.026
205.483
208.78
213.776
218.308
221.693
226.317
229.673
230.111
227.778
219.748
204.132
181.235
150.972
114.254
71.7371
23.1402
-30.9237
-90.3152
-152.959
-218.784
-289.348
-364.735
-444.587
-527.259
-609.728
-690.682
-767.41
-832.803
-878.666
-904.56
-917.083
-927.013
-955.991
-1008.39
-1088.34
-1181.98
-1270.77
-1352.32
-1396.77
-1400.16
-1380.64
-1356.44
-1345.65
218.424
215.033
211.476
207.964
204.137
201.639
203.077
207.112
212.194
216.791
219.836
225.179
232.681
237.069
237.195
232.687
222.274
203.225
175.383
139.884
96.7471
47.0711
-7.49417
-66.2571
-129.605
-199.226
-272.904
-350.371
-432.076
-519.308
-609.166
-699.643
-785.228
-858.358
-910.789
-939.003
-936.983
-907.494
-879.373
-876.414
-916.358
-1022.7
-1159.29
-1295.87
-1412.1
-1466.06
-1466.6
-1437.69
-1418.26
-1410.25
220.723
216.578
211.444
205.247
199.83
196.853
199.183
204.672
204.216
209.016
218.728
224.966
229.309
235.061
237.891
232.497
217.104
190.587
153.906
110.623
62.0836
8.54836
-49.4794
-113.118
-180.936
-253.17
-331.079
-415.823
-506.787
-603.517
-704.272
-805.098
-895.191
-963.137
-1004.33
-1006.03
-965.574
-904.42
-850.252
-845.849
-912.265
-1036.84
-1181.26
-1321.66
-1435.41
-1478.28
-1468.86
-1451.68
-1441.3
-1438.7
223.711
217.116
207.72
196.16
186.958
182.233
180.525
180.536
185.135
189.085
199.267
211.897
219.771
223.702
222.056
211.395
190.161
157.553
113.826
63.1343
7.28286
-52.027
-113.418
-177.668
-247.489
-323.473
-405.939
-494.061
-592.931
-701.994
-820.273
-935.638
-1032.11
-1094.47
-1117.39
-1090.32
-1021.81
-949.46
-923.569
-946.222
-1005.27
-1095.93
-1217.2
-1343.61
-1433.09
-1463.01
-1453.51
-1442.26
-1441.63
-1444.17
222.474
210.466
195.177
173.862
149.024
137.645
143.908
141.323
151.702
166.416
178.268
184.561
187.029
185.827
175.172
150.506
115.622
74.7652
29.9449
-18.9424
-72.8979
-131.574
-194.445
-260.653
-331.788
-408.474
-495.806
-593.293
-701.605
-828.262
-969.8
-1101.09
-1199.65
-1261.2
-1264.1
-1209.82
-1145.53
-1096.33
-1081.62
-1097.95
-1141.72
-1202.73
-1283.65
-1369.62
-1423.64
-1438.9
-1432.68
-1430.58
-1436.16
-1440.33
214.763
195.575
167.025
127.01