/*--------------------------------*- C++ -*----------------------------------*\
| =========                 |                                                 |
| \\      /  F ield         | OpenFOAM: The Open Source CFD Toolbox           |
|  \\    /   O peration     | Version:  v1912                                 |
|   \\  /    A nd           | Website:  www.openfoam.com                      |
|    \\/     M anipulation  |                                                 |
\*---------------------------------------------------------------------------*/
FoamFile
{
    version     2.0;
    format      ascii;
    class       surfaceScalarField;
    location    "0.5";
    object      phi;
}
// * * * * * * * * * * * * * * * * * * * * * * * * * * * * * * * * * * * * * //

dimensions      [0 3 -1 0 0 0 0];
oriented        oriented;


internalField   nonuniform List<scalar> 
13060
(
0.00629713
0.987754
-0.994051
0.00904786
0.943783
-0.946534
0.0115305
0.896818
-0.8993
0.0139495
0.851768
-0.854187
0.0160687
0.809224
-0.811344
0.0177514
0.768733
-0.770416
0.018942
0.730706
-0.731897
0.0196871
0.694838
-0.695583
0.0201504
0.66078
-0.661243
0.0204467
0.628312
-0.628608
0.0205259
0.597736
-0.597816
0.0204617
0.568681
-0.568617
0.0202966
0.54117
-0.541005
0.0199864
0.515011
-0.514701
0.0195954
0.489945
-0.489554
0.0192648
0.465886
-0.465555
0.0190889
0.442844
-0.442668
0.0189816
0.42079
-0.420683
0.0189984
0.399671
-0.399688
0.0190896
0.379555
-0.379646
0.0192921
0.36029
-0.360493
0.0195491
0.342029
-0.342286
0.0196666
0.324579
-0.324696
0.0196249
0.307972
-0.30793
0.0194759
0.292127
-0.291978
0.0190418
0.277163
-0.276729
0.0183812
0.262852
-0.262192
0.0178284
0.248992
-0.248439
0.017417
0.23588
-0.235468
0.0169661
0.2237
-0.223249
0.0163154
0.212197
-0.211546
0.0156263
0.201167
-0.200478
0.0150345
0.190898
-0.190306
0.014368
0.181275
-0.180609
0.0135974
0.172163
-0.171392
0.012717
0.163563
-0.162683
0.0117089
0.155566
-0.154557
0.0105646
0.148103
-0.146958
0.00938979
0.141005
-0.139831
0.00821162
0.134413
-0.133235
0.0070002
0.128348
-0.127137
0.00574905
0.122606
-0.121355
0.00449857
0.117205
-0.115955
0.0032636
0.11229
-0.111055
0.00209405
0.107522
-0.106352
0.00100779
0.103196
-0.10211
-3.61202e-05
0.0988089
-0.0977649
-0.0012425
0.0955898
-0.0943834
-0.0015599
0.087827
-0.0875096
0.0611306
-0.0626905
0.00668773
0.981066
0.00906517
0.941406
0.0110452
0.894838
0.0127062
0.850107
0.0141433
0.807787
0.0152089
0.767668
0.015809
0.730106
0.0161433
0.694504
0.0161415
0.660782
0.0158388
0.628615
0.0154251
0.59815
0.0149637
0.569142
0.014581
0.541553
0.0144309
0.515161
0.0143712
0.490005
0.0142813
0.465976
0.0142131
0.442912
0.014049
0.420954
0.0138405
0.399879
0.0135708
0.379825
0.0132155
0.360645
0.0129449
0.3423
0.0127557
0.324768
0.0126202
0.308108
0.0126218
0.292125
0.0128191
0.276965
0.0129616
0.26271
0.0127804
0.249173
0.0123725
0.236287
0.0119141
0.224158
0.011437
0.212674
0.0107821
0.201822
0.0100212
0.191659
0.00919974
0.182097
0.00833406
0.173029
0.00744349
0.164454
0.00656705
0.156442
0.0056845
0.148985
0.00474701
0.141943
0.00378952
0.135371
0.00284552
0.129292
0.00191719
0.123534
0.00101722
0.118105
0.000173244
0.113134
-0.00073203
0.108427
-0.00156019
0.104024
-0.00238274
0.0996314
-0.00264574
0.0958528
-0.00217744
0.0873587
0.0589532
0.00682919
0.974237
0.0089278
0.939307
0.0104173
0.893348
0.011304
0.84922
0.011943
0.807148
0.0122226
0.767388
0.0121654
0.730163
0.0119789
0.69469
0.0116783
0.661082
0.0112547
0.629038
0.010814
0.598591
0.0103155
0.569641
0.00975365
0.542114
0.00914624
0.515769
0.00864534
0.490506
0.00830961
0.466311
0.00813672
0.443085
0.0080815
0.421009
0.0080995
0.399861
0.00828191
0.379642
0.00849791
0.360429
0.00857994
0.342218
0.00852944
0.324818
0.00833604
0.308301
0.00788551
0.292576
0.0072523
0.277599
0.00668473
0.263277
0.00633364
0.249524
0.00603727
0.236584
0.00563782
0.224558
0.00510535
0.213207
0.00462438
0.202303
0.0042046
0.192079
0.00370976
0.182591
0.00312388
0.173615
0.00247816
0.1651
0.00175955
0.157161
0.0010185
0.149726
0.000298913
0.142663
-0.000447552
0.136117
-0.00119598
0.130041
-0.00189167
0.12423
-0.00252014
0.118733
-0.00306776
0.113681
-0.00349359
0.108853
-0.00383238
0.104363
-0.00410399
0.099903
-0.00382076
0.0955696
-0.00277192
0.0863099
0.0561812
0.00629892
0.967938
0.00772573
0.937881
0.00871713
0.892357
0.00916027
0.848777
0.00932661
0.806982
0.00898064
0.767734
0.00851553
0.730629
0.007964
0.695242
0.00724446
0.661802
0.00644094
0.629842
0.0057029
0.599329
0.0050682
0.570276
0.00468365
0.542499
0.00440725
0.516045
0.00416448
0.490748
0.0039385
0.466537
0.00367304
0.443351
0.00341258
0.42127
0.00304277
0.400231
0.00260216
0.380083
0.00221154
0.36082
0.00194522
0.342484
0.00177867
0.324985
0.00166763
0.308412
0.00175487
0.292488
0.00195712
0.277396
0.00188939
0.263345
0.00152223
0.249891
0.00110087
0.237005
0.000764283
0.224894
0.000410422
0.21356
-0.000164627
0.202878
-0.000832882
0.192747
-0.00146383
0.183222
-0.00211464
0.174265
-0.0027502
0.165735
-0.00332003
0.15773
-0.00385637
0.150263
-0.00437979
0.143186
-0.0048587
0.136596
-0.0052849
0.130467
-0.00567046
0.124615
-0.00599057
0.119054
-0.0061924
0.113883
-0.00626925
0.10893
-0.00619283
0.104287
-0.0060151
0.0997253
-0.00526443
0.0948189
-0.00350309
0.0845485
0.0526782
0.00577529
0.962163
0.00651029
0.937146
0.00672914
0.892138
0.0065313
0.848975
0.00604609
0.807467
0.00520392
0.768576
0.00429966
0.731533
0.00340362
0.696138
0.00260809
0.662597
0.00185324
0.630597
0.00112611
0.600056
0.00042396
0.570978
-0.000314744
0.543238
-0.000923706
0.516654
-0.00139914
0.491224
-0.00177285
0.466911
-0.00205832
0.443636
-0.00217089
0.421382
-0.00208154
0.400142
-0.0019255
0.379927
-0.00192155
0.360816
-0.00202027
0.342583
-0.00220198
0.325167
-0.0025978
0.308808
-0.00327407
0.293165
-0.00399719
0.278119
-0.00444351
0.263791
-0.00472697
0.250175
-0.00508323
0.237361
-0.00550283
0.225314
-0.0058785
0.213936
-0.00618299
0.203183
-0.00648072
0.193045
-0.00681354
0.183555
-0.00717304
0.174625
-0.00758105
0.166143
-0.00802572
0.158175
-0.00844487
0.150682
-0.00877058
0.143512
-0.00902455
0.13685
-0.00919609
0.130638
-0.00925587
0.124675
-0.00921655
0.119014
-0.00905223
0.113719
-0.00875829
0.108636
-0.00828345
0.103812
-0.00772415
0.099166
-0.00656353
0.0936583
-0.00418604
0.082171
0.0484921
0.0046662
0.957497
0.00439448
0.937417
0.00378099
0.892751
0.00309585
0.84966
0.00216786
0.808395
0.00112151
0.769623
3.22123e-05
0.732622
-0.00117338
0.697344
-0.00226769
0.663692
-0.00321026
0.631539
-0.00404601
0.600892
-0.00464047
0.571572
-0.00509784
0.543695
-0.00546164
0.517018
-0.00577787
0.49154
-0.00607605
0.467209
-0.00644193
0.444002
-0.00694838
0.421889
-0.00761945
0.400813
-0.00825859
0.380566
-0.00865922
0.361217
-0.00893591
0.34286
-0.00907254
0.325303
-0.00898878
0.308724
-0.00875347
0.292929
-0.00870324
0.278069
-0.00898696
0.264075
-0.00940951
0.250597
-0.00980895
0.237761
-0.0101187
0.225624
-0.0105247
0.214342
-0.0109917
0.20365
-0.0114283
0.193481
-0.0118027
0.18393
-0.0121689
0.174991
-0.012479
0.166453
-0.0126869
0.158383
-0.0128255
0.15082
-0.0129197
0.143606
-0.0129341
0.136864
-0.0128412
0.130545
-0.0126591
0.124493
-0.0123567
0.118712
-0.0119118
0.113274
-0.0113497
0.108073
-0.0106316
0.103094
-0.00972789
0.0982623
-0.00808706
0.0920175
-0.00491552
0.0789995
0.0435766
0.00385205
0.953645
0.00265923
0.93861
0.00117201
0.894239
-9.7732e-05
0.85093
-0.00166646
0.809964
-0.00308948
0.771046
-0.00439138
0.733924
-0.00557679
0.698529
-0.00662643
0.664741
-0.00759977
0.632512
-0.00854715
0.601839
-0.00943958
0.572465
-0.0102185
0.544474
-0.0109114
0.517711
-0.0115056
0.492134
-0.0119486
0.467652
-0.0121617
0.444215
-0.0121642
0.421891
-0.0120919
0.400741
-0.0121391
0.380613
-0.012284
0.361362
-0.0125387
0.343114
-0.0130434
0.325808
-0.0137425
0.309423
-0.0145636
0.293751
-0.0151024
0.278608
-0.0153366
0.264309
-0.015554
0.250814
-0.0158097
0.238017
-0.0161244
0.225938
-0.0163334
0.214551
-0.0165309
0.203847
-0.0167271
0.193678
-0.0168585
0.184061
-0.0169252
0.175058
-0.0169993
0.166527
-0.0170607
0.158444
-0.0170432
0.150803
-0.0169197
0.143482
-0.0166998
0.136644
-0.0163605
0.130206
-0.0158739
0.124006
-0.0152841
0.118122
-0.0145771
0.112567
-0.0137504
0.107247
-0.0128603
0.102204
-0.0115553
0.0969573
-0.00945946
0.0899216
-0.00558055
0.0751206
0.0379961
0.00250413
0.951141
0.000589806
0.940524
-0.00152963
0.896358
-0.00342131
0.852822
-0.00525162
0.811794
-0.00689867
0.772693
-0.00843845
0.735464
-0.00988991
0.69998
-0.0111481
0.665999
-0.0122238
0.633588
-0.0131237
0.602739
-0.0138732
0.573214
-0.0144941
0.545095
-0.0150274
0.518244
-0.0155025
0.492609
-0.0160349
0.468185
-0.0167302
0.444911
-0.0175502
0.422711
-0.0183114
0.401502
-0.0189131
0.381215
-0.0193609
0.36181
-0.0195364
0.34329
-0.0194891
0.325761
-0.0192159
0.30915
-0.0190631
0.293598
-0.0192124
0.278757
-0.0195263
0.264623
-0.0198554
0.251144
-0.0201563
0.238317
-0.0204444
0.226226
-0.0207022
0.214809
-0.020942
0.204087
-0.0211293
0.193865
-0.0212804
0.184212
-0.0213763
0.175154
-0.0213463
0.166497
-0.0211839
0.158282
-0.020926
0.150545
-0.0206182
0.143175
-0.0202048
0.136231
-0.0196563
0.129658
-0.019013
0.123363
-0.0182441
0.117353
-0.0173351
0.111658
-0.0163013
0.106213
-0.0152251
0.101128
-0.0135574
0.0952896
-0.010947
0.0873112
-0.00623679
0.0704104
0.0317593
0.00159471
0.949546
-0.00104313
0.943162
-0.00360958
0.898925
-0.00594375
0.855156
-0.00812591
0.813976
-0.0100202
0.774587
-0.0117091
0.737153
-0.0132244
0.701496
-0.014625
0.6674
-0.0158856
0.634849
-0.0170593
0.603913
-0.0181669
0.574322
-0.0191844
0.546112
-0.0201376
0.519197
-0.0209297
0.493402
-0.0214641
0.468719
-0.0216558
0.445102
-0.0216977
0.422753
-0.021744
0.401548
-0.0219215
0.381392
-0.0223249
0.362213
-0.0229612
0.343926
-0.0237731
0.326572
-0.0246266
0.310004
-0.0252465
0.294218
-0.0255555
0.279066
-0.0256961
0.264764
-0.0258001
0.251248
-0.0259266
0.238444
-0.0259869
0.226287
-0.026031
0.214853
-0.0260659
0.204122
-0.0260457
0.193845
-0.0259084
0.184075
-0.02569
0.174935
-0.0254546
0.166262
-0.025166
0.157993
-0.0247631
0.150142
-0.0242324
0.142644
-0.0236152
0.135614
-0.022892
0.128934
-0.0220156
0.122487
-0.0210485
0.116386
-0.0200034
0.110613
-0.0188663
0.105076
-0.0174833
0.0997446
-0.0155147
0.093321
-0.0123647
0.0841612
-0.00682302
0.0648687
0.0249362
0.000702757
0.948843
-0.00272521
0.94659
-0.0057593
0.901959
-0.00852973
0.857926
-0.0108862
0.816333
-0.0129773
0.776678
-0.01488
0.739055
-0.016584
0.7032
-0.0181251
0.668941
-0.0195183
0.636242
-0.0206425
0.605037
-0.0216254
0.575305
-0.022411
0.546898
-0.023158
0.519944
-0.0240008
0.494244
-0.0250369
0.469755
-0.0261634
0.446229
-0.0272341
0.423824
-0.0280387
0.402353
-0.0286277
0.381981
-0.0289253
0.362511
-0.0289644
0.343965
-0.0287994
0.326407
-0.0286626
0.309867
-0.0286548
0.29421
-0.0288848
0.279296
-0.0291579
0.265037
-0.0294121
0.251502
-0.0296366
0.238669
-0.0298392
0.226489
-0.0299499
0.214964
-0.0299514
0.204123
-0.0298883
0.193781
-0.0298012
0.183988
-0.0296245
0.174758
-0.0293007
0.165938
-0.0288387
0.157531
-0.028272
0.149575
-0.0276546
0.142027
-0.026908
0.134867
-0.0260159
0.128042
-0.0250628
0.121534
-0.0239985
0.115322
-0.0227862
0.1094
-0.0216131
0.103903
-0.0199075
0.098039
-0.0176096
0.0910232
-0.0136991
0.0802506
-0.00728105
0.0584507
0.0176552
0.000213806
0.948629
-0.00362286
0.950427
-0.00691927
0.905255
-0.0100009
0.861008
-0.012719
0.819051
-0.015098
0.779057
-0.0171781
0.741135
-0.0190283
0.70505
-0.0206942
0.670607
-0.0222867
0.637835
-0.0237937
0.606544
-0.0252347
0.576746
-0.026552
0.548215
-0.0276902
0.521083
-0.0285747
0.495129
-0.0291228
0.470303
-0.0294913
0.446597
-0.0297861
0.424119
-0.0301498
0.402716
-0.0307017
0.382533
-0.0314862
0.363295
-0.0323784
0.344857
-0.0332717
0.327301
-0.0340407
0.310636
-0.0344807
0.29465
-0.0347041
0.27952
-0.034813
0.265146
-0.0348389
0.251528
-0.0347801
0.23861
-0.0346659
0.226375
-0.0345563
0.214854
-0.0344344
0.204002
-0.034224
0.193571
-0.0338717
0.183636
-0.0334421
0.174329
-0.0329823
0.165478
-0.0324581
0.157007
-0.0318101
0.148927
-0.0310171
0.141234
-0.0301457
0.133996
-0.0291891
0.127086
-0.028074
0.120418
-0.0268907
0.114139
-0.0257143
0.108224
-0.0243428
0.102531
-0.0223423
0.0960385
-0.0194532
0.0881341
-0.0144029
0.0752003
-0.0065136
0.0505614
0.0111416
-0.000291021
0.94892
-0.00455223
0.954688
-0.00814541
0.908848
-0.011489
0.864351
-0.0142933
0.821855
-0.0169212
0.781685
-0.0192291
0.743443
-0.0212737
0.707094
-0.0231691
0.672502
-0.0248126
0.639478
-0.0262156
0.607947
-0.0274106
0.577941
-0.0285242
0.549329
-0.0296328
0.522191
-0.0309245
0.49642
-0.0323705
0.471749
-0.0338373
0.448064
-0.0350257
0.425307
-0.0359126
0.403603
-0.0364177
0.383038
-0.0366582
0.363536
-0.0367235
0.344923
-0.0366712
0.327248
-0.0366266
0.310591
-0.0367856
0.294809
-0.0370317
0.279766
-0.0372571
0.265371
-0.0374776
0.251748
-0.0377199
0.238852
-0.0379086
0.226564
-0.0379462
0.214892
-0.0378156
0.203871
-0.0376008
0.193356
-0.0373604
0.183395
-0.0370147
0.173983
-0.0365087
0.164972
-0.0358515
0.15635
-0.0351084
0.148184
-0.0343389
0.140464
-0.0334306
0.133087
-0.0323533
0.126008
-0.0312241
0.119289
-0.030008
0.112922
-0.0288142
0.10703
-0.027071
0.100788
-0.0248305
0.093798
-0.021102
0.0844056
-0.0143846
0.0684829
-0.00482071
0.0409975
0.00632087
-0.000558337
0.949479
-0.00476032
0.95889
-0.00847318
0.912561
-0.0119457
0.867824
-0.0149111
0.824821
-0.0176578
0.784432
-0.0201006
0.745886
-0.0223105
0.709304
-0.0243923
0.674584
-0.0264803
0.641566
-0.0284681
0.609934
-0.030317
0.57979
-0.0319968
0.551009
-0.033318
0.523512
-0.034182
0.497284
-0.0348147
0.472382
-0.0354225
0.448672
-0.0361227
0.426007
-0.03695
0.404431
-0.0379133
0.384002
-0.0389368
0.364559
-0.0399617
0.345948
-0.0409154
0.328202
-0.0415871
0.311263
-0.0419694
0.295191
-0.0422027
0.279999
-0.0423194
0.265488
-0.0423049
0.251734
-0.0421491
0.238696
-0.0419265
0.226341
-0.0417406
0.214706
-0.0415865
0.203717
-0.0413615
0.193131
-0.0409706
0.183004
-0.0404782
0.173491
-0.0399452
0.164439
-0.0393494
0.155754
-0.038613
0.147448
-0.0377056
0.139557
-0.0367175
0.132099
-0.0356745
0.124965
-0.0344896
0.118104
-0.0333752
0.111808
-0.0319472
0.105602
-0.0299329
0.0987737
-0.0269785
0.0908436
-0.0220596
0.0794868
-0.0140374
0.0604606
-0.00306358
0.0300238
0.00325729
-0.00068518
0.950164
-0.00490494
0.96311
-0.00867237
0.916328
-0.012178
0.871329
-0.0152011
0.827844
-0.0180689
0.7873
-0.0206539
0.748471
-0.0231148
0.711765
-0.0253183
0.676788
-0.0273001
0.643548
-0.0290729
0.611707
-0.0307242
0.581441
-0.0323997
0.552684
-0.0342261
0.525339
-0.0361511
0.499209
-0.0380228
0.474254
-0.0396418
0.450291
-0.0409347
0.4273
-0.0418079
0.405304
-0.0423048
0.384499
-0.0426187
0.364873
-0.0427828
0.346112
-0.0428779
0.328297
-0.0430621
0.311447
-0.0433151
0.295444
-0.0435504
0.280234
-0.0437923
0.26573
-0.0440619
0.252003
-0.0443717
0.239006
-0.0446178
0.226587
-0.0447025
0.21479
-0.0445672
0.203582
-0.0443157
0.19288
-0.0440746
0.182763
-0.0437617
0.173178
-0.0432696
0.163947
-0.0426042
0.155089
-0.0418762
0.14672
-0.0411276
0.138808
-0.0402286
0.1312
-0.0391379
0.123875
-0.0380949
0.117061
-0.0369753
0.110688
-0.035234
0.103861
-0.0328714
0.0964111
-0.0291415
0.0871137
-0.0227508
0.073096
-0.012815
0.0505249
-0.00173154
0.0189403
0.00152575
-0.000107035
0.950271
-0.00417918
0.967182
-0.00793922
0.920089
-0.0113636
0.874754
-0.0144259
0.830906
-0.0172982
0.790172
-0.0199061
0.751079
-0.0225065
0.714366
-0.0251711
0.679452
-0.0277742
0.646151
-0.0303429
0.614276
-0.0326758
0.583774
-0.0346377
0.554646
-0.0361404
0.526841
-0.037356
0.500425
-0.0384681
0.475366
-0.0396486
0.451471
-0.0408943
0.428546
-0.0422265
0.406636
-0.0434713
0.385743
-0.0446895
0.366091
-0.0458327
0.347255
-0.0467672
0.329232
-0.0474051
0.312085
-0.0478307
0.29587
-0.0481114
0.280515
-0.0482678
0.265886
-0.0482751
0.252011
-0.0481569
0.238888
-0.047976
0.226406
-0.0478582
0.214673
-0.0478573
0.203581
-0.0478303
0.192853
-0.0476029
0.182536
-0.0472131
0.172788
-0.0467763
0.16351
-0.0462877
0.1546
-0.0456284
0.146061
-0.0447718
0.137951
-0.0438209
0.130249
-0.0429029
0.122957
-0.0420351
0.116194
-0.0406186
0.109272
-0.0387472
0.101989
-0.0360583
0.0937222
-0.0314147
0.0824701
-0.0230073
0.0646885
-0.00994528
0.0374629
-0.00108622
0.0100812
0.000439531
0.000384352
0.949887
-0.0032134
0.97078
-0.00681549
0.923691
-0.0102464
0.878185
-0.0133775
0.834037
-0.016426
0.793221
-0.019254
0.753907
-0.0219352
0.717047
-0.0244154
0.681933
-0.0267259
0.648461
-0.0290244
0.616574
-0.031401
0.58615
-0.0339419
0.557187
-0.0366011
0.529501
-0.0391299
0.502954
-0.0413935
0.47763
-0.0432912
0.453369
-0.0447768
0.430031
-0.0458675
0.407727
-0.0466301
0.386506
-0.0470975
0.366559
-0.0474611
0.347618
-0.0477926
0.329563
-0.0481406
0.312433
-0.0484815
0.296211
-0.0488093
0.280843
-0.0491217
0.266198
-0.0494504
0.252339
-0.04983
0.239268
-0.0502093
0.226786
-0.0504604
0.214924
-0.0504577
0.203578
-0.0503248
0.19272
-0.0502872
0.182498
-0.0502653
0.172766
-0.0500422
0.163287
-0.04959
0.154148
-0.0490784
0.145549
-0.0485226
0.137396
-0.0478157
0.129543
-0.0471015
0.122243
-0.0460596
0.115152
-0.0445681
0.10778
-0.0425121
0.0999335
-0.0388271
0.0900371
-0.0317628
0.0754058
-0.0201918
0.0531175
-0.00591173
0.0231829
-0.000612879
0.00478234
-0.000173345
0.000961525
0.948925
-0.00202249
0.973764
-0.00529973
0.926968
-0.00837506
0.88126
-0.0112964
0.836959
-0.0142534
0.796178
-0.0172277
0.756881
-0.020357
0.720176
-0.0234867
0.685062
-0.0266206
0.651595
-0.0295828
0.619537
-0.0322214
0.588789
-0.0344418
0.559407
-0.0364379
0.531497
-0.0383403
0.504856
-0.0402565
0.479546
-0.0421447
0.455257
-0.0440905
0.431977
-0.0459226
0.409559
-0.0476309
0.388214
-0.0490999
0.368028
-0.0503599
0.348878
-0.0513065
0.33051
-0.0519702
0.313097
-0.0523882
0.296629
-0.0526675
0.281122
-0.0528806
0.266412
-0.0530051
0.252464
-0.0530426
0.239305
-0.0530216
0.226765
-0.0531154
0.215017
-0.0534471
0.20391
-0.0538384
0.193111
-0.0539975
0.182657
-0.0539078
0.172676
-0.053766
0.163146
-0.0536107
0.153993
-0.0532443
0.145182
-0.0526489
0.1368
-0.0520605
0.128954
-0.0513535
0.121535
-0.0501773
0.113975
-0.0485489
0.106152
-0.0456588
0.0970434
-0.0401339
0.0845122
-0.0301812
0.0654531
-0.0143836
0.0373199
-0.00294769
0.011747
-9.88246e-05
0.00193347
-0.000272172
0.00151578
0.947409
-0.00102713
0.976307
-0.0038712
0.929812
-0.00671189
0.884101
-0.0095874
0.839834
-0.0125314
0.799121
-0.0153891
0.759739
-0.0182222
0.723009
-0.0209799
0.68782
-0.0238145
0.65443
-0.0268743
0.622596
-0.0302244
0.592139
-0.0336621
0.562845
-0.0369625
0.534797
-0.04004
0.507934
-0.0427634
0.482269
-0.0450779
0.457572
-0.0469739
0.433873
-0.0484998
0.411085
-0.0496671
0.389382
-0.0505232
0.368884
-0.0512152
0.34957
-0.0518122
0.331107
-0.0523718
0.313656
-0.0528689
0.297126
-0.0532302
0.281483
-0.0535441
0.266726
-0.0538951
0.252815
-0.0543342
0.239744
-0.054868
0.227299
-0.0553521
0.215502
-0.0556187
0.204176
-0.0558176
0.19331
-0.05624
0.18308
-0.056795
0.173231
-0.0571416
0.163492
-0.0571445
0.153996
-0.057022
0.14506
-0.056843
0.136621
-0.0565022
0.128613
-0.0557031
0.120736
-0.0544621
0.112734
-0.0521991
0.103889
-0.0477435
0.0925877
-0.0388423
0.0756111
-0.0237358
0.0503465
-0.00752278
0.0211069
-0.00119554
0.00541974
0.000176923
0.000561015
-9.52478e-05
0.00221964
0.94519
0.000102066
0.978424
-0.00226064
0.932175
-0.00465895
0.886499
-0.0071563
0.842331
-0.00994913
0.801914
-0.0130091
0.762799
-0.016375
0.726375
-0.0198173
0.691262
-0.0231396
0.657752
-0.0262609
0.625718
-0.0292446
0.595123
-0.0321628
0.565763
-0.0350482
0.537683
-0.0379108
0.510796
-0.0407015
0.48506
-0.043507
0.460377
-0.0461859
0.436552
-0.048678
0.413577
-0.0508977
0.391601
-0.0527585
0.370745
-0.0542237
0.351036
-0.0552551
0.332138
-0.055862
0.314263
-0.0562767
0.297541
-0.0565647
0.281771
-0.0567333
0.266894
-0.0568599
0.252941
-0.0569549
0.239839
-0.0570975
0.227441
-0.0574825
0.215886
-0.058237
0.204931
-0.0591702
0.194243
-0.0599672
0.183877
-0.0605238
0.173788
-0.0609991
0.163967
-0.0614677
0.154464
-0.0616733
0.145266
-0.061508
0.136456
-0.0610013
0.128107
-0.0601349
0.11987
-0.0583862
0.110986
-0.0546822
0.100185
-0.0468632
0.0847687
-0.0332047
0.0619526
-0.0143142
0.0314559
-0.00322435
0.0100171
2.36283e-05
0.00217176
0.000346362
0.000238278
0.000251114
0.00281418
0.942375
0.00104085
0.980198
-0.00110957
0.934325
-0.00334004
0.88873
-0.00559797
0.844589
-0.00793136
0.804248
-0.0103484
0.765216
-0.0130344
0.729061
-0.0159859
0.694214
-0.0194487
0.661215
-0.0232872
0.629556
-0.0273208
0.599156
-0.0314041
0.569847
-0.0354216
0.5417
-0.039218
0.514593
-0.0426387
0.488481
-0.0456708
0.463409
-0.0482976
0.439179
-0.0504929
0.415772
-0.0522741
0.393382
-0.0536638
0.372134
-0.0547614
0.352133
-0.0557212
0.333098
-0.0564774
0.315019
-0.0569707
0.298034
-0.0572898
0.28209
-0.057518
0.267122
-0.0577694
0.253193
-0.0581409
0.240211
-0.0586622
0.227963
-0.0592202
0.216445
-0.0597702
0.205481
-0.0604931
0.194966
-0.0615688
0.184953
-0.0629146
0.175134
-0.0642098
0.165263
-0.0651471
0.155402
-0.0657111
0.14583
-0.0659504
0.136695
-0.0656309
0.127787
-0.0643709
0.11861
-0.0612541
0.107869
-0.0545472
0.0934782
-0.042124
0.0723456
-0.0218893
0.0417178
-0.00593821
0.0155048
-0.000271894
0.00435082
0.000994305
0.000905561
0.000577015
0.000655571
0.000828128
0.00319812
0.939177
0.00176768
0.981628
8.65178e-05
0.936006
-0.00167843
0.890494
-0.00364228
0.846553
-0.00604118
0.806647
-0.00868982
0.767865
-0.0117083
0.73208
-0.0146618
0.697167
-0.017782
0.664335
-0.0210337
0.632808
-0.0245207
0.602643
-0.0282315
0.573558
-0.0320701
0.545539
-0.036038
0.518561
-0.0400493
0.492492
-0.0439696
0.46733
-0.0477002
0.442909
-0.0511348
0.419207
-0.0541266
0.396374
-0.0565714
0.374579
-0.0583867
0.353949
-0.0595724
0.334283
-0.0602223
0.315669
-0.0605032
0.298315
-0.0605426
0.28213
-0.0604331
0.267013
-0.0602362
0.252996
-0.0600791
0.240054
-0.0601642
0.228048
-0.0606924
0.216973
-0.0616879
0.206476
-0.0630387
0.196317
-0.0646564
0.18657
-0.0663842
0.176861
-0.0680698
0.166948
-0.069617
0.156949
-0.0706952
0.146908
-0.0709203
0.13692
-0.0702075
0.127074
-0.067689
0.116092
-0.0620409
0.102221
-0.0506422
0.0820795
-0.0295247
0.051228
-0.00955135
0.0217445
-0.00119281
0.00714631
0.00129331
0.00186471
0.00140773
0.000791138
0.000685069
0.00137823
0.0015132
0.00326299
0.935914
0.0018989
0.982992
0.000407263
0.937498
-0.00111055
0.892012
-0.00248796
0.847931
-0.00394861
0.808107
-0.00568587
0.769602
-0.00801658
0.73441
-0.0109498
0.700101
-0.0144672
0.667853
-0.018406
0.636747
-0.0227151
0.606952
-0.0272843
0.578127
-0.0319331
0.550188
-0.0365401
0.523168
-0.0409728
0.496925
-0.0451277
0.471484
-0.0489328
0.446715
-0.0522857
0.42256
-0.0550758
0.399164
-0.0573508
0.376854
-0.0591457
0.355744
-0.0605712
0.335709
-0.0615095
0.316608
-0.0619971
0.298802
-0.0621007
0.282233
-0.0619773
0.266889
-0.0617766
0.252795
-0.0616112
0.239888
-0.0615982
0.228035
-0.0617945
0.217169
-0.0624157
0.207097
-0.0635933
0.197494
-0.0653363
0.188313
-0.0675994
0.179125
-0.0702748
0.169624
-0.0729341
0.159608
-0.074953
0.148927
-0.0757288
0.137696
-0.0743863
0.125732
-0.0696368
0.111342
-0.0590767
0.0916609
-0.0372039
0.0602067
-0.0145421
0.0285662
-0.00377892
0.0109813
-0.000370718
0.00373811
0.00038783
0.00110616
0.000499403
0.000679566
0.000313047
0.00156459
0.00182624
0.00309292
0.932821
0.00185141
0.984234
0.000602873
0.938746
-0.000637256
0.893252
-0.00213088
0.849424
-0.00373227
0.809709
-0.00534595
0.771216
-0.00706397
0.736128
-0.00917971
0.702216
-0.0117506
0.670423
-0.0148156
0.639812
-0.0185073
0.610644
-0.0227499
0.582369
-0.0274465
0.554884
-0.0325047
0.528226
-0.0377602
0.50218
-0.0430614
0.476786
-0.0482539
0.451907
-0.0531327
0.427439
-0.0574439
0.403475
-0.0609826
0.380393
-0.0635443
0.358305
-0.0651477
0.337312
-0.0659316
0.317392
-0.0660633
0.298934
-0.0657186
0.281889
-0.0650555
0.266226
-0.0641778
0.251917
-0.0632606
0.238971
-0.0626749
0.227449
-0.062605
0.217099
-0.0630983
0.207591
-0.0643899
0.198786
-0.0666036
0.190527
-0.0696356
0.182157
-0.0732783
0.173266
-0.0769353
0.163265
-0.0799639
0.151955
-0.0806554
0.138388
-0.0770402
0.122117
-0.0674762
0.101778
-0.045112
0.0692966
-0.0203711
0.0354658
-0.00771173
0.0159069
-0.00362178
0.00689133
-0.00248943
0.00260576
-0.00191169
0.00052842
-0.00122018
-1.19436e-05
-0.000350023
0.000694426
0.00147622
0.00250598
0.930315
0.000975112
0.985765
-0.000432229
0.940154
-0.00121684
0.894037
-0.00169885
0.849906
-0.00236563
0.810375
-0.00350787
0.772358
-0.00491054
0.737531
-0.00699717
0.704303
-0.00972467
0.673151
-0.0130633
0.643151
-0.0170139
0.614595
-0.0215887
0.586944
-0.0266786
0.559974
-0.0320816
0.533629
-0.037638
0.507736
-0.0431649
0.482313
-0.0485331
0.457275
-0.0535674
0.432473
-0.0580587
0.407967
-0.0619215
0.384256
-0.0650879
0.361472
-0.067457
0.339681
-0.0689774
0.318912
-0.0696297
0.299586
-0.0694151
0.281674
-0.0685203
0.265331
-0.0672442
0.250641
-0.0658655
0.237592
-0.0645462
0.22613
-0.0636712
0.216224
-0.063622
0.207542
-0.0645257
0.19969
-0.066455
0.192456
-0.0697085
0.18541
-0.0742052
0.177763
-0.0794411
0.168501
-0.0839456
0.15646
-0.0844333
0.138875
-0.0771367
0.11482
-0.0553962
0.0800375
-0.0281058
0.0420062
-0.0129333
0.0202933
-0.00687723
0.00985082
-0.00452384
0.00453793
-0.00362286
0.00170479
-0.00310356
9.11767e-06
-0.00226306
-0.000852443
-0.000958976
-0.000609658
0.000517245
0.00190706
0.928408
0.000199808
0.987472
-0.00138958
0.941743
-0.0024925
0.89514
-0.00337438
0.850788
-0.00375055
0.810752
-0.00408623
0.772694
-0.00445649
0.737901
-0.00521074
0.705057
-0.00659302
0.674533
-0.00888741
0.645445
-0.0120526
0.61776
-0.016113
0.591005
-0.0211002
0.564961
-0.0268598
0.539388
-0.0332403
0.514117
-0.0400113
0.489083
-0.0469189
0.464183
-0.0537155
0.43927
-0.060029
0.41428
-0.065468
0.389695
-0.0697847
0.365788
-0.0728004
0.342697
-0.0744199
0.320532
-0.0747808
0.299947
-0.0741829
0.281076
-0.0728358
0.263984
-0.0708528
0.248658
-0.0685218
0.235261
-0.0662681
0.223876
-0.064285
0.214241
-0.0629593
0.206216
-0.062987
0.199717
-0.0649576
0.194427
-0.068805
0.189258
-0.0742318
0.18319
-0.0806401
0.174909
-0.0855328
0.161352
-0.0839971
0.13734
-0.0686978
0.0995207
-0.0399906
0.0513303
-0.0200239
0.0220395
-0.0102543
0.0105237
-0.00436623
0.0039627
-0.000931029
0.00110273
0.000396604
0.000377156
4.80072e-05
0.000357714
-0.00063785
-0.000166586
-0.000605004
-0.000642503
-8.77589e-05
0.000998471
0.92741
-0.00135387
0.989824
-0.00394521
0.944334
-0.00424185
0.895437
-0.0044643
0.851011
-0.00447485
0.810762
-0.00447333
0.772692
-0.00463463
0.738063
-0.00525558
0.705678
-0.00636333
0.675641
-0.0082463
0.647328
-0.0110587
0.620572
-0.0148779
0.594824
-0.0196409
0.569724
-0.0252425
0.54499
-0.0315377
0.520412
-0.038276
0.495822
-0.0452642
0.471171
-0.0522848
0.44629
-0.0590644
0.42106
-0.065251
0.395881
-0.0705761
0.371113
-0.0748199
0.346941
-0.0777673
0.323479
-0.0792397
0.30142
-0.0792576
0.281094
-0.0779323
0.262659
-0.0754949
0.246221
-0.0722746
0.232041
-0.0688162
0.220418
-0.0656985
0.211123
-0.0633107
0.203828
-0.062052
0.198459
-0.0620755
0.19445
-0.0639201
0.191102
-0.0689624
0.188232
-0.075646
0.181593
-0.0807381
0.166445
-0.077908
0.13451
-0.0579018
0.0795146
-0.032604
0.0260325
-0.0171211
0.00655655
-0.00724054
0.000643181
-0.000281722
-0.00299611
0.00423087
-0.00340986
0.00654794
-0.00193992
0.0062523
0.000653354
0.00395063
0.00213509
0.00129217
0.00201595
0.00120441
5.09228e-05
0.927359
-0.00235127
0.992226
-0.00606706
0.94805
-0.00720666
0.896576
-0.00782593
0.85163
-0.00730515
0.810241
-0.00618796
0.771575
-0.00499286
0.736868
-0.00407471
0.70476
-0.00373215
0.675298
-0.00428885
0.647885
-0.00583783
0.622121
-0.0087335
0.597719
-0.0130377
0.574028
-0.0185602
0.550513
-0.025354
0.527206
-0.0331664
0.503634
-0.0416341
0.479639
-0.0504525
0.455109
-0.0592082
0.429816
-0.0674219
0.404095
-0.0745872
0.378279
-0.0803337
0.352687
-0.0843351
0.32748
-0.0862967
0.303381
-0.0862956
0.281093
-0.0846118
0.260975
-0.0816021
0.243211
-0.0775103
0.227949
-0.0725858
0.215493
-0.0673356
0.205873
-0.0623995
0.198892
-0.0585941
0.194653
-0.0573643
0.193221
-0.0597757
0.193514
-0.0646074
0.193064
-0.0693084
0.186294
-0.0724142
0.16955
-0.0667548
0.12885
-0.0492399
0.0619997
-0.0318199
0.00861247
-0.0175851
-0.00767826
-0.00711308
-0.00982879
2.71226e-06
-0.0101119
0.00461562
-0.00802277
0.00773353
-0.00505783
0.00856216
-0.000175274
0.00643731
0.00425994
0.00271333
0.00573993
0.00391775
-0.00352637
0.930885
-0.00438262
0.993083
-0.0088423
0.95251
-0.0104347
0.898169
-0.0112298
0.852425
-0.0110057
0.810017
-0.0100323
0.770601
-0.00878597
0.735621
-0.00752645
0.703501
-0.0065402
0.674312
-0.00632157
0.647666
-0.00708403
0.622884
-0.0089405
0.599576
-0.0122902
0.577378
-0.017006
0.555228
-0.0229651
0.533165
-0.0301389
0.510808
-0.0382556
0.487755
-0.0470992
0.463952
-0.0562404
0.438957
-0.0652567
0.413111
-0.0736806
0.386703
-0.0809838
0.359991
-0.0866777
0.333174
-0.0902659
0.306969
-0.0916843
0.282511
-0.0910235
0.260314
-0.0884067
0.240594
-0.084052
0.223594
-0.0783302
0.209771
-0.0719577
0.199501
-0.0655756
0.19251
-0.0596333
0.188711
-0.0546134
0.188201
-0.051246
0.190146
-0.0508278
0.192646
-0.0512185
0.186685
-0.0523661
0.170698
-0.0492741
0.125758
-0.0385525
0.0512781
-0.026022
-0.00391801
-0.0151074
-0.0185928
-0.00572958
-0.0192066
0.000742601
-0.0165841
0.00460326
-0.0118834
0.00723796
-0.00769253
0.00850041
-0.00143772
0.00701199
0.00574836
0.00326518
0.00948674
0.00718292
-0.00132482
0.93221
-0.00497603
0.996734
-0.0106062
0.95814
-0.0138452
0.901408
-0.0152895
0.853869
-0.0148583
0.809586
-0.0129084
0.768652
-0.0102786
0.732991
-0.00749297
0.700715
-0.00493368
0.671753
-0.00306221
0.645795
-0.00219296
0.622014
-0.00273102
0.600114
-0.00516329
0.57981
-0.00927723
0.559342
-0.015004
0.538892
-0.022805
0.518609
-0.032057
0.497007
-0.0423569
0.474252
-0.0534389
0.450039
-0.0648208
0.424493
-0.0757801
0.397662
-0.0856745
0.369885
-0.0936959
0.341196
-0.0992306
0.312504
-0.101724
0.285004
-0.100982
0.259573
-0.0975604
0.237173
-0.0921459
0.21818
-0.0850994
0.202725
-0.0761126
0.190514
-0.0660647
0.182462
-0.0559755
0.178622