/*--------------------------------*- C++ -*----------------------------------*\
| =========                 |                                                 |
| \\      /  F ield         | OpenFOAM: The Open Source CFD Toolbox           |
|  \\    /   O peration     | Version:  v1912                                 |
|   \\  /    A nd           | Website:  www.openfoam.com                      |
|    \\/     M anipulation  |                                                 |
\*---------------------------------------------------------------------------*/
FoamFile
{
    version     2.0;
    format      ascii;
    class       volVectorField;
    location    "0.5";
    object      U;
}
// * * * * * * * * * * * * * * * * * * * * * * * * * * * * * * * * * * * * * //

dimensions      [0 1 -1 0 0 0 0];


internalField   nonuniform List<vector> 
6600
(
(39.8347 -0.0564051 0)
(40.0578 -0.0823809 5.81338e-20)
(40.0891 -0.0511491 4.0689e-18)
(40.1072 -0.0134721 0)
(40.1082 0.0189645 5.10724e-18)
(40.0965 0.0629748 1.76609e-19)
(40.094 0.135783 -1.95326e-19)
(40.0951 0.230129 -2.1704e-19)
(40.0843 0.346635 4.35177e-18)
(40.0729 0.473774 -3.00358e-19)
(40.0728 0.622619 0)
(40.0638 0.793198 -5.35436e-18)
(40.0606 0.979534 0)
(40.0532 1.185 -6.18666e-18)
(40.0249 1.41257 -7.91134e-18)
(39.9825 1.6593 -4.15965e-18)
(39.9336 1.90708 0)
(39.8482 2.16318 0)
(39.762 2.41906 6.55964e-18)
(39.679 2.68624 -6.42218e-18)
(39.5951 2.95846 -9.07805e-19)
(39.532 3.24201 -3.11986e-18)
(39.4338 3.53035 -5.81643e-18)
(39.3091 3.85019 1.30129e-18)
(39.1633 4.21092 4.45234e-18)
(39.0268 4.59313 0)
(38.8311 5.05965 1.0987e-17)
(38.5892 5.56791 0)
(38.385 6.05918 -5.60025e-18)
(38.188 6.57761 -3.711e-18)
(37.9288 7.14024 -2.96903e-19)
(37.5925 7.7433 -4.60355e-18)
(37.3523 8.40914 -1.78493e-18)
(37.1448 9.10349 3.84723e-18)
(36.8843 9.84836 3.42718e-19)
(36.5839 10.6525 4.67742e-18)
(36.3076 11.5345 8.30839e-18)
(36.0266 12.5385 8.7964e-18)
(35.7341 13.6293 -6.52901e-18)
(35.4783 14.7825 7.14748e-18)
(35.2493 16.0228 3.92989e-18)
(34.9957 17.364 0)
(34.766 18.8007 -1.88866e-18)
(34.6265 20.386 4.31234e-18)
(34.5078 22.0385 0)
(34.4374 23.8394 1.42363e-18)
(34.3219 25.6418 2.98093e-18)
(34.584 27.7988 0)
(33.0531 28.9644 0)
(24.2176 23.0033 9.84012e-20)
(39.7075 -0.0577841 3.41933e-18)
(40.1029 -0.117949 -3.75013e-18)
(40.116 -0.0559151 0)
(40.1328 -0.00143089 -7.17685e-20)
(40.1396 0.0471928 5.15775e-18)
(40.1347 0.110764 1.76467e-19)
(40.1359 0.211352 -6.37484e-23)
(40.156 0.326296 -2.17651e-19)
(40.1777 0.457191 0)
(40.1699 0.61633 -8.34312e-18)
(40.1681 0.797102 -2.9938e-19)
(40.1641 0.995125 5.31952e-18)
(40.1574 1.21165 5.5563e-18)
(40.1457 1.43147 3.37276e-18)
(40.1339 1.63793 -2.13975e-21)
(40.0933 1.86742 5.16997e-19)
(40.0732 2.09804 -4.60361e-18)
(40.0503 2.36201 0)
(39.9956 2.64235 0)
(39.9297 2.93895 6.55654e-18)
(39.8311 3.26229 9.12328e-19)
(39.7198 3.61083 -5.04036e-18)
(39.6076 3.97123 -4.50028e-18)
(39.4875 4.33074 -5.03137e-18)
(39.3264 4.70666 -4.19108e-18)
(39.1597 5.08155 -1.59393e-18)
(39.0248 5.4273 -1.8542e-18)
(38.8313 5.84593 -1.99698e-18)
(38.6242 6.32749 5.69763e-18)
(38.4368 6.87415 2.64606e-19)
(38.2923 7.45344 -7.10143e-18)
(38.1473 8.07079 6.3696e-18)
(37.9193 8.77143 5.00736e-18)
(37.695 9.52591 -5.82399e-18)
(37.4828 10.323 3.67964e-19)
(37.2588 11.1921 -4.78385e-18)
(37.0481 12.106 4.68934e-18)
(36.8576 13.0879 -3.06382e-18)
(36.6601 14.1476 -2.78686e-18)
(36.5065 15.2946 -3.1184e-18)
(36.405 16.5285 0)
(36.3043 17.838 0)
(36.2279 19.2291 -1.50164e-18)
(36.2105 20.7298 1.54505e-18)
(36.2298 22.2967 2.60679e-18)
(36.338 24.0094 -1.46995e-18)
(36.4393 25.7558 -1.34873e-18)
(36.8414 27.7465 0)
(35.3637 28.4693 -1.26129e-18)
(25.3258 22.0623 1.3816e-19)
(39.5889 -0.0543098 -3.32688e-20)
(40.1616 -0.144614 3.8226e-18)
(40.1719 -0.0563311 4.13108e-18)
(40.182 0.00410791 -2.27478e-22)
(40.1831 0.0805151 -2.72052e-19)
(40.1852 0.177981 1.76368e-19)
(40.1976 0.305853 0)
(40.2021 0.443383 0)
(40.2195 0.59463 0)
(40.2319 0.766001 4.5845e-18)
(40.2429 0.952256 -2.98964e-19)
(40.25 1.15118 -5.35504e-18)
(40.2636 1.36869 -2.64048e-18)
(40.2657 1.60897 6.21501e-18)
(40.2654 1.86377 3.67819e-18)
(40.2434 2.1256 -5.17006e-19)
(40.1773 2.38025 9.79904e-18)
(40.1205 2.63678 -5.11457e-18)
(40.0605 2.91159 -5.71291e-18)
(40.0032 3.19215 0)
(39.9599 3.46785 -3.56132e-18)
(39.9098 3.76291 4.07146e-18)
(39.8395 4.09852 4.55368e-18)
(39.7648 4.46746 5.09494e-18)
(39.6765 4.86186 4.29496e-18)
(39.5559 5.33769 -7.23499e-19)
(39.4078 5.84537 -8.71118e-19)
(39.2429 6.34833 -2.8198e-18)
(39.0829 6.84526 -1.08047e-18)
(38.9289 7.38869 3.74017e-18)
(38.7154 7.98464 1.33225e-18)
(38.4972 8.61637 0)
(38.3701 9.2866 -6.46283e-18)
(38.2715 10.0123 1.75634e-18)
(38.1381 10.7909 3.86076e-18)
(37.9848 11.6225 6.05939e-18)
(37.8599 12.5279 -2.5905e-18)
(37.7461 13.5122 -2.44879e-18)
(37.6426 14.5632 4.41479e-19)
(37.5951 15.6796 0)
(37.6047 16.8795 -2.30628e-18)
(37.6232 18.151 0)
(37.6917 19.4777 0)
(37.8759 20.9277 -2.0789e-18)
(38.1235 22.4151 -1.1005e-18)
(38.4459 24.0207 -9.52334e-21)
(38.775 25.6725 2.46368e-19)
(39.2935 27.4325 0)
(37.646 27.7514 -1.28353e-18)
(26.1138 20.7817 1.28079e-18)
(39.4705 -0.0503615 -3.40981e-18)
(40.2332 -0.130091 2.90908e-20)
(40.2197 -0.0203038 -4.24596e-18)
(40.2289 0.0467156 -4.48301e-18)
(40.2349 0.131977 -5.00968e-18)
(40.2442 0.260158 -2.71301e-18)
(40.2707 0.402068 -1.95243e-19)
(40.2984 0.553628 0)
(40.3205 0.722605 3.83851e-18)
(40.3229 0.917194 4.53823e-18)
(40.3344 1.12101 -2.98363e-19)
(40.344 1.33995 -3.32786e-19)
(40.3472 1.5612 -2.60807e-18)
(40.3519 1.7769 -4.49959e-19)
(40.3454 2.00847 4.16475e-19)
(40.3586 2.25032 -5.14514e-19)
(40.3607 2.52058 5.0655e-19)
(40.3484 2.79175 5.80068e-18)
(40.308 3.08493 7.88251e-18)
(40.2485 3.41212 0)
(40.1617 3.7683 8.16385e-20)
(40.0822 4.12254 0)
(39.9927 4.48344 0)
(39.9109 4.86787 -1.23201e-18)
(39.7993 5.26599 4.06317e-18)
(39.7052 5.62887 3.87148e-18)
(39.6339 6.03634 -8.47749e-19)
(39.506 6.52019 3.84735e-18)
(39.3558 7.05782 0)
(39.2478 7.61838 0)
(39.2217 8.21876 2.42364e-18)
(39.1345 8.86465 0)
(38.9777 9.58096 1.66714e-18)
(38.8671 10.34 3.26959e-18)
(38.8124 11.1517 -5.52936e-18)
(38.745 12.0312 -5.85993e-18)
(38.7036 12.939 5.79346e-18)
(38.7019 13.8981 -2.14012e-18)
(38.695 14.9115 3.42851e-19)
(38.7504 15.9944 4.05074e-19)
(38.8939 17.1425 4.05173e-18)
(39.0648 18.3524 0)
(39.282 19.6238 0)
(39.5658 20.9648 7.86514e-19)
(39.9242 22.3344 -2.02553e-19)
(40.3879 23.7984 -7.71442e-19)
(40.8888 25.3693 -1.49345e-18)
(41.3555 26.8266 1.64986e-18)
(39.4046 26.6835 3.20548e-18)
(26.4373 19.1812 0)
(39.3518 -0.0371194 -1.30823e-20)
(40.3028 -0.126228 3.695e-18)
(40.2954 0.0274734 4.02533e-18)
(40.2997 0.0966579 4.64287e-18)
(40.3071 0.214225 0)
(40.3304 0.362208 2.71402e-20)
(40.3552 0.517899 0)
(40.3679 0.690366 -2.15854e-19)
(40.405 0.872584 -7.43613e-18)
(40.4353 1.06329 -4.55975e-18)
(40.4486 1.26624 2.97158e-19)
(40.4713 1.48184 3.31215e-19)
(40.4924 1.71313 -3.68608e-19)
(40.5098 1.96375 -3.30705e-18)
(40.511 2.21445 -7.77992e-18)
(40.4786 2.4707 5.10245e-19)
(40.438 2.74 -9.09687e-18)
(40.4161 3.01989 6.3405e-19)
(40.3867 3.30414 -2.85466e-18)
(40.365 3.56267 -1.57365e-18)
(40.3474 3.86525 4.41936e-18)
(40.3259 4.20021 0)
(40.2854 4.55675 0)
(40.2543 4.94091 -2.35806e-18)
(40.2066 5.39121 -2.72391e-18)
(40.111 5.91083 3.61611e-18)
(40.0276 6.42535 -8.19548e-19)
(39.9543 6.92602 0)
(39.8724 7.45591 9.80348e-19)
(39.776 8.04331 -1.092e-18)
(39.6281 8.65216 -2.46331e-18)
(39.5689 9.28591 -3.69534e-18)
(39.5642 9.96398 1.40619e-18)
(39.5632 10.698 -1.4474e-18)
(39.5553 11.4633 1.61063e-18)
(39.5591 12.2822 0)
(39.6003 13.1809 -1.86563e-18)
(39.6749 14.1273 -3.11229e-18)
(39.773 15.1225 1.78848e-18)
(39.9477 16.1611 1.86894e-18)
(40.1921 17.2572 -1.72771e-18)
(40.4617 18.3893 0)
(40.7983 19.544 0)
(41.2673 20.7914 -2.85894e-19)
(41.8263 22.0508 5.25314e-19)
(42.4489 23.3851 2.78375e-20)
(43.0782 24.8296 1.208e-18)
(43.48 25.9849 -2.67182e-18)
(40.9765 25.4086 4.81235e-19)
(26.3078 17.3007 -5.31733e-18)
(39.2461 -0.0266868 3.33329e-18)
(40.3842 -0.0840707 -5.48422e-20)
(40.3726 0.103111 -4.10284e-18)
(40.4008 0.185868 2.24343e-18)
(40.4123 0.322482 0)
(40.4409 0.48044 2.88306e-18)
(40.4851 0.640228 -9.65539e-20)
(40.5162 0.823518 -3.40814e-18)
(40.5375 1.02209 3.83615e-18)
(40.5649 1.22458 0)
(40.592 1.43901 2.94989e-19)
(40.6067 1.65746 2.27688e-18)
(40.6233 1.873 -3.26445e-18)
(40.6314 2.09782 4.07176e-19)
(40.6576 2.33436 4.11123e-18)
(40.6884 2.58941 -5.0507e-19)
(40.7035 2.85237 2.88348e-18)
(40.6972 3.13864 -6.26002e-19)
(40.6837 3.47248 6.94565e-19)
(40.6403 3.83541 2.26519e-18)
(40.5889 4.18787 2.93617e-18)
(40.5352 4.55191 2.74517e-21)
(40.4832 4.93075 1.05253e-18)
(40.4394 5.32099 4.07059e-18)
(40.3886 5.67204 0)
(40.3619 6.05411 -2.9097e-18)
(40.3348 6.51558 7.70559e-19)
(40.2707 7.03316 -1.72385e-20)
(40.2069 7.58355 -7.87822e-20)
(40.2026 8.15695 1.02342e-18)
(40.2775 8.78795 -2.05907e-18)
(40.2768 9.45318 2.47183e-18)
(40.2267 10.1593 0)
(40.2536 10.8925 0)
(40.3532 11.6888 0)
(40.436 12.5234 0)
(40.5557 13.3796 -1.82751e-18)
(40.738 14.2831 3.34449e-18)
(40.9217 15.2089 0)
(41.1839 16.1941 5.43959e-20)
(41.5411 17.2128 -2.81483e-19)
(41.9399 18.2693 -1.35822e-19)
(42.4026 19.3566 4.65029e-20)
(42.9197 20.4597 0)
(43.5121 21.5605 7.46529e-19)
(44.1983 22.7309 -3.19126e-18)
(44.8941 24.051 2.1462e-18)
(45.0523 24.8764 2.22873e-18)
(41.8239 23.7795 8.48553e-18)
(25.537 15.1279 -6.50251e-18)
(39.1562 -0.0224268 -3.32894e-18)
(40.4861 -0.0550267 -7.27939e-18)
(40.4929 0.165092 6.30517e-20)
(40.5366 0.256969 -2.25068e-18)
(40.552 0.432326 2.38898e-18)
(40.5859 0.59702 -8.60294e-20)
(40.6203 0.770335 3.13287e-18)
(40.6598 0.957258 3.42178e-18)
(40.7038 1.15001 3.86556e-18)
(40.7369 1.35026 -1.31297e-19)
(40.7776 1.562 -2.31423e-18)
(40.814 1.79059 -4.6228e-20)
(40.8521 2.03305 2.91439e-18)
(40.8701 2.27906 0)
(40.8597 2.53672 0)
(40.8446 2.80257 2.47953e-19)
(40.8369 3.07738 4.13094e-18)
(40.8361 3.34551 0)
(40.8518 3.60509 3.38488e-19)
(40.8675 3.90162 -3.43714e-18)
(40.8763 4.22119 -2.97883e-18)
(40.8868 4.56436 1.33271e-18)
(40.8857 4.93699 0)
(40.9075 5.3853 -2.29607e-18)
(40.9026 5.88303 -6.07916e-19)
(40.8583 6.3964 6.77147e-19)
(40.8517 6.88676 0)
(40.8528 7.38442 0)
(40.8485 7.92685 -1.01633e-18)
(40.7906 8.49629 -7.94891e-19)
(40.7641 9.09856 3.0444e-18)
(40.8429 9.73208 -1.06575e-18)
(40.9671 10.4139 -1.03614e-18)
(41.0606 11.1306 2.20808e-18)
(41.1815 11.8501 -2.67353e-18)
(41.3517 12.6204 -3.44722e-19)
(41.5433 13.4479 1.21156e-18)
(41.7803 14.3034 -1.1208e-18)
(42.0628 15.1919 4.73377e-19)
(42.4221 16.0932 6.49625e-20)
(42.8445 17.0354 -3.57725e-19)
(43.2987 17.9788 9.6151e-20)
(43.8169 18.9165 8.98588e-19)
(44.4725 19.9134 -9.98213e-19)
(45.2169 20.8965 7.79029e-19)
(45.9993 21.9328 0)
(46.6805 23.0772 1.65006e-18)
(46.586 23.5515 3.11523e-18)
(42.3223 21.9856 -6.11182e-18)
(24.1062 12.7358 -2.05357e-18)
(39.0883 -0.00152823 3.25187e-18)
(40.6245 -0.00961703 3.59871e-18)
(40.6337 0.239039 3.12886e-20)
(40.6837 0.33029 -2.19795e-18)
(40.7085 0.532219 -4.91347e-18)
(40.7535 0.698554 2.79075e-18)
(40.8029 0.87782 -6.14462e-18)
(40.8434 1.07526 1.66653e-18)
(40.8795 1.27611 -3.76194e-18)
(40.9211 1.48567 -2.18402e-18)
(40.9605 1.6965 4.89334e-18)
(40.9875 1.91726 -2.90389e-18)
(41.0263 2.13971 -2.8097e-18)
(41.0753 2.37911 7.43195e-22)
(41.131 2.62523 -1.50782e-18)
(41.1732 2.88273 1.91307e-18)
(41.1999 3.16408 -2.18639e-18)
(41.2217 3.48962 0)
(41.2308 3.83829 0)
(41.2257 4.19203 0)
(41.207 4.56073 -3.97496e-19)
(41.1882 4.93433 -1.36585e-18)
(41.1731 5.2953 -1.39564e-18)
(41.1647 5.6379 -5.34516e-19)
(41.2013 6.00157 0)
(41.2296 6.41332 0)
(41.2412 6.89692 1.28613e-18)
(41.2566 7.41094 -7.11476e-19)
(41.2853 7.94625 -9.64434e-20)
(41.4114 8.53128 1.1661e-19)
(41.5424 9.14233 6.12831e-20)
(41.6362 9.78117 -6.8162e-19)
(41.7026 10.444 4.24107e-19)
(41.8643 11.14 -1.2436e-18)
(42.0915 11.8916 9.93146e-19)
(42.3007 12.6463 6.0487e-19)
(42.565 13.4143 1.85656e-19)
(42.8928 14.2069 -2.55121e-19)
(43.227 15.005 -3.94858e-19)
(43.6379 15.855 1.16267e-20)
(44.1331 16.6943 -3.46914e-19)
(44.6723 17.5473 8.94117e-19)
(45.2904 18.4134 -9.94528e-19)
(45.9352 19.2554 0)
(46.6341 20.0721 0)
(47.4289 21.0073 0)
(47.9537 21.8201 0)
(47.4023 22.0421 0)
(41.8313 19.8682 -3.87101e-18)
(21.8293 10.1608 6.33353e-18)
(39.0754 0.0216515 -3.21976e-18)
(40.7762 0.00584271 0)
(40.8069 0.296794 0)
(40.8666 0.375286 2.23755e-18)
(40.8852 0.602194 2.40793e-18)
(40.9273 0.7658 -2.79732e-18)
(40.9789 0.954209 3.10496e-18)
(41.0384 1.14749 -1.67184e-18)
(41.0864 1.34949 1.82368e-18)
(41.1356 1.55802 2.18948e-18)
(41.2019 1.77783 -2.29048e-18)
(41.2562 2.01477 2.32967e-18)
(41.3043 2.25768 4.20004e-18)
(41.3334 2.51748 0)
(41.3559 2.78725 1.73561e-18)
(41.3764 3.06939 -2.15833e-18)
(41.4015 3.3343 2.56893e-21)
(41.4305 3.59133 -2.25649e-18)
(41.4824 3.86348 2.80211e-18)
(41.5368 4.16132 0)
(41.5919 4.48685 0)
(41.6483 4.86046 1.62354e-18)
(41.7157 5.29641 1.272e-19)
(41.7686 5.76184 -1.90306e-18)
(41.814 6.25732 -5.25156e-19)
(41.8523 6.73952 1.6779e-18)
(41.92 7.20841 -2.45595e-18)
(41.9952 7.70444 1.84779e-18)
(42.056 8.22339 -1.03581e-18)
(42.0689 8.76075 7.07592e-19)
(42.1426 9.32249 -3.78965e-19)
(42.3355 9.92468 1.28626e-18)
(42.5574 10.5691 -2.23046e-19)
(42.7406 11.2222 7.81072e-19)
(42.9796 11.8715 0)
(43.2816 12.5649 1.68457e-19)
(43.5805 13.2833 2.71174e-19)
(43.9231 14.0108 1.97814e-19)
(44.3286 14.7509 4.90199e-19)
(44.8027 15.4816 -3.1106e-19)
(45.3238 16.2468 -3.28681e-19)
(45.8742 16.9816 -1.29582e-18)
(46.4665 17.6852 3.27578e-18)
(47.1978 18.4192 4.65867e-19)
(48.0178 19.1376 5.54522e-19)
(48.8635 19.9775 -1.54576e-18)
(49.1422 20.4587 0)
(47.9875 20.3856 3.51231e-18)
(40.815 17.6528 -1.79858e-18)
(18.7639 7.54033 0)
(39.0914 0.0319412 1.21131e-20)
(40.9663 0.030837 -6.22864e-23)
(40.9989 0.345327 -1.95024e-18)
(41.0559 0.430871 0)
(41.0878 0.666296 -3.73481e-20)
(41.1391 0.827134 -1.27373e-18)
(41.1889 1.01989 0)
(41.2431 1.21669 1.61735e-18)
(41.3009 1.42051 -1.942e-18)
(41.3495 1.63365 1.25821e-19)
(41.3982 1.85113 2.20122e-18)
(41.4566 2.06962 -1.12407e-18)
(41.5272 2.30186 -1.55405e-18)
(41.6167 2.53267 0)
(41.6943 2.78666 0)
(41.7657 3.06746 0)
(41.8189 3.38735 -1.73423e-18)
(41.8733 3.73659 2.26652e-18)
(41.9117 4.08311 -3.99202e-18)
(41.9496 4.43599 3.2888e-19)
(41.9687 4.7997 -7.25529e-19)
(41.9868 5.12994 -1.23394e-18)
(42.0249 5.47207 3.41389e-18)
(42.0923 5.8202 2.79469e-18)
(42.1884 6.18727 0)
(42.2679 6.61222 -1.35336e-18)
(42.3456 7.09021 2.4731e-18)
(42.4417 7.58095 -1.5023e-18)
(42.5871 8.10426 5.83577e-19)
(42.7897 8.66279 -3.10779e-19)
(42.9966 9.24317 2.68655e-19)
(43.169 9.82825 -7.65519e-19)
(43.3291 10.4196 8.26074e-19)
(43.5889 11.0505 -5.40106e-19)
(43.9028 11.7193 -9.7439e-20)
(44.204 12.3708 1.07382e-19)
(44.5684 13.03 1.57151e-19)
(44.9812 13.6858 -3.106e-19)
(45.3986 14.3382 3.77624e-20)
(45.884 15.0299 0)
(46.4344 15.6697 8.95835e-19)
(47.0191 16.3078 8.34087e-19)
(47.7038 16.9546 1.93792e-19)
(48.3864 17.5511 -2.72911e-18)
(49.1018 18.1299 -2.11995e-19)
(49.7692 18.7619 -2.05038e-18)
(49.7707 18.9747 0)
(47.6574 18.5603 3.79417e-18)
(38.4499 15.1068 -6.35702e-18)
(14.6769 4.84777 0)
(39.1283 0.0436026 0)
(41.1681 0.0290771 0)
(41.2059 0.368434 1.01656e-18)
(41.2803 0.435542 -6.64347e-20)
(41.3 0.690361 1.20413e-18)
(41.3551 0.850746 1.31793e-18)
(41.4174 1.04706 0)
(41.484 1.24304 -1.62106e-18)
(41.5477 1.44298 1.75883e-18)
(41.6246 1.65305 0)
(41.6964 1.88096 -3.28411e-18)
(41.7627 2.11787 -3.20003e-20)
(41.8106 2.36869 -1.65714e-19)
(41.8698 2.62786 1.8476e-19)
(41.9253 2.90214 0)
(41.9927 3.15782 0)
(42.0459 3.42041 1.15597e-18)
(42.1242 3.68324 9.08492e-19)
(42.2051 3.97048 5.95972e-20)
(42.3184 4.27062 1.55957e-19)
(42.432 4.63265 -3.4253e-19)
(42.5389 5.03757 1.88057e-19)
(42.6404 5.45749 -1.64987e-18)
(42.7497 5.92972 -6.78383e-19)
(42.8509 6.39199 6.10294e-19)
(42.9763 6.83396 8.67114e-19)
(43.1045 7.28846 -8.02191e-19)
(43.2471 7.76103 -6.97852e-19)
(43.364 8.24124 0)
(43.4687 8.7298 0)
(43.6289 9.24168 0)
(43.9039 9.79224 4.69668e-19)
(44.1988 10.3683 1.1234e-19)
(44.4487 10.9368 1.73996e-19)
(44.7638 11.4988 6.17708e-20)
(45.143 12.0937 1.82296e-19)
(45.4995 12.6933 1.84183e-20)
(45.8918 13.2946 4.45015e-19)
(46.3603 13.8856 -2.94352e-19)
(46.8765 14.4463 -5.50862e-19)
(47.4157 15.0325 -7.5394e-19)
(47.9887 15.5754 8.4066e-19)
(48.5676 16.0628 0)
(49.2799 16.559 1.67389e-18)
(50.1436 17.1325 -9.64104e-19)
(50.5472 17.4432 1.23547e-18)
(50.171 17.4527 0)
(46.7949 16.5246 -1.94448e-18)
(35.3406 12.3981 1.16013e-18)
(9.88283 2.23593 0)
(39.1704 0.052835 7.48001e-19)
(41.3958 0.0349177 0)
(41.4351 0.387296 1.88677e-18)
(41.5004 0.446433 -1.03326e-18)
(41.5255 0.708244 -1.16901e-18)
(41.5918 0.856851 3.99813e-20)
(41.6497 1.06198 -4.44963e-20)
(41.7209 1.25428 0)
(41.7888 1.46031 -1.708e-18)
(41.8569 1.66755 8.91503e-19)
(41.933 1.88172 1.07917e-18)
(42.0264 2.09993 -1.26572e-18)
(42.1204 2.3236 6.39525e-19)
(42.224 2.56031 1.78413e-19)
(42.3338 2.8187 -9.87589e-20)
(42.4318 3.11386 0)
(42.5177 3.44994 1.07497e-18)
(42.5916 3.79193 -1.17613e-18)
(42.6511 4.14142 1.94582e-19)
(42.7214 4.47572 -5.38003e-21)
(42.7954 4.78967 -1.63977e-19)
(42.8682 5.11666 0)
(42.961 5.44384 -1.76396e-19)
(43.09 5.76724 -5.28514e-19)
(43.2271 6.13896 -8.42403e-19)
(43.3709 6.5594 -8.72294e-19)
(43.5154 6.99759 0)
(43.6837 7.45273 4.45761e-19)
(43.9131 7.94562 5.06178e-19)
(44.1812 8.47346 -2.68831e-19)
(44.4516 9.01158 3.06109e-19)
(44.6905 9.53788 6.38146e-20)
(44.9246 10.0601 -4.91664e-21)
(45.2505 10.6098 5.34936e-21)
(45.6162 11.1821 -6.23062e-20)
(45.9601 11.7309 -1.34535e-20)
(46.3625 12.2758 -1.59626e-19)
(46.8012 12.7906 0)
(47.2414 13.3106 -5.04501e-19)
(47.7387 13.8573 1.11243e-18)
(48.2797 14.3234 7.70559e-19)
(48.8298 14.7655 -9.92154e-19)
(49.5088 15.2258 1.45961e-18)
(50.181 15.6442 -7.14034e-19)
(50.7773 15.9974 1.99946e-18)
(50.8217 16.0845 5.48302e-20)
(49.7462 15.8148 0)
(44.7151 14.238 4.03751e-18)
(30.7991 9.30379 -3.47169e-18)
(6.20779 0.452327 -1.30386e-18)
(39.2181 0.0661314 -7.56876e-19)
(41.6193 0.0216777 8.17795e-19)
(41.663 0.376272 -9.27646e-19)
(41.7372 0.41742 1.01834e-18)
(41.7548 0.685909 5.62212e-19)
(41.8317 0.818461 3.9301e-20)
(41.9018 1.02315 -2.18162e-20)
(41.9833 1.21112 0)
(42.0831 1.40479 7.89629e-19)
(42.1797 1.61761 -1.35951e-18)
(42.2608 1.85198 0)
(42.3408 2.08658 7.10834e-20)
(42.4183 2.34593 -1.76192e-19)
(42.4971 2.60789 -5.93756e-19)
(42.5861 2.85296 8.37781e-19)
(42.6757 3.09197 -2.32293e-21)
(42.7739 3.32962 -1.13982e-19)
(42.8755 3.59457 0)
(43.0032 3.88895 5.7039e-19)
(43.1515 4.22099 -6.17513e-19)
(43.314 4.58142 7.71638e-20)
(43.4604 4.97229 0)
(43.6068 5.38818 0)
(43.7532 5.82843 4.01447e-19)
(43.9172 6.2377 -8.28919e-20)
(44.0985 6.65007 4.98867e-19)
(44.2778 7.07825 -1.69782e-19)
(44.4665 7.51061 8.75507e-20)
(44.6425 7.9386 -2.73931e-19)
(44.8197 8.36772 -6.82364e-20)
(45.0492 8.81903 -2.02709e-19)
(45.377 9.30738 -5.85231e-20)
(45.713 9.82138 9.89489e-20)
(46.0073 10.3231 -9.58489e-20)
(46.3616 10.8044 -1.56672e-19)
(46.7753 11.303 -1.60322e-19)
(47.1502 11.799 0)
(47.5464 12.2988 6.81558e-19)
(48.0191 12.7578 -2.55058e-19)
(48.5115 13.1704 -6.75216e-19)
(49.0002 13.5943 8.72978e-19)
(49.5442 13.9894 -5.95793e-20)
(50.0558 14.3166 -7.86532e-19)
(50.775 14.7126 -1.5507e-20)
(51.06 14.847 -1.06441e-18)
(50.9238 14.7886 -2.83389e-18)
(48.7511 14.1066 1.62469e-18)
(41.5871 11.7058 0)
(25.5373 6.13049 -2.35693e-18)
(3.82959 -0.200552 4.52059e-18)
(39.2798 0.0647049 -1.43518e-21)
(41.8304 0.0115848 -8.23159e-19)
(41.8887 0.35721 2.17165e-19)
(41.9582 0.38424 7.85759e-21)
(41.9829 0.650973 -5.62531e-19)
(42.061 0.763255 0)
(42.1285 0.968295 0)
(42.2147 1.15075 2.34862e-20)
(42.3063 1.3424 -1.28201e-18)
(42.4184 1.53915 4.65656e-19)
(42.5261 1.75071 -3.14731e-20)
(42.6449 1.95573 6.96781e-20)
(42.7708 2.18351 -3.96042e-19)
(42.9075 2.42968 3.93437e-19)
(43.0387 2.71554 -1.10561e-18)
(43.1746 3.02973 1.95785e-19)
(43.2855 3.35544 -2.11815e-19)
(43.3661 3.67743 -5.71007e-20)
(43.4324 3.99258 6.39527e-19)
(43.5307 4.2943 4.17117e-19)
(43.6422 4.5854 4.25856e-21)
(43.7628 4.88675 7.60918e-20)
(43.9001 5.18096 0)
(44.0625 5.49692 2.90936e-19)
(44.2416 5.85497 4.95899e-21)
(44.4365 6.23011 -1.13707e-19)
(44.6341 6.62001 -3.81858e-20)
(44.8713 7.03861 -5.24009e-20)
(45.1551 7.48986 0)
(45.4613 7.97005 -8.57371e-21)
(45.7763 8.45713 -2.49867e-20)
(46.0704 8.93246 1.53914e-20)
(46.3577 9.38553 -3.55818e-21)
(46.7138 9.8511 1.69406e-19)
(47.0977 10.35 -1.89757e-19)
(47.4446 10.8245 -1.50875e-19)
(47.8338 11.2748 0)
(48.2573 11.6774 -4.55446e-19)
(48.6794 12.1091 -3.47303e-19)
(49.1346 12.5426 3.87944e-19)
(49.6177 12.8891 -4.96598e-19)
(50.0766 13.1867 6.24609e-19)
(50.7591 13.5616 0)
(51.165 13.7562 4.56628e-19)
(51.2005 13.7682 0)
(50.2084 13.4804 7.40001e-19)
(46.4537 12.3407 -1.69407e-18)
(36.7125 9.28942 9.68729e-19)
(17.2754 3.02699 0)
(1.76152 -0.269256 2.99146e-19)
(39.3065 0.0394457 -1.75296e-22)
(42.0257 -0.0256911 -1.94684e-22)
(42.0965 0.304579 -2.23853e-19)
(42.1651 0.313918 -9.58682e-22)
(42.1991 0.569921 -7.36762e-21)
(42.2943 0.662507 -1.17571e-21)
(42.3723 0.859232 1.30869e-21)
(42.4847 1.01692 -2.87424e-21)
(42.6012 1.20962 4.15766e-19)
(42.7172 1.41916 6.95901e-21)
(42.8238 1.64647 3.84132e-21)
(42.9311 1.89075 -8.49498e-21)
(43.0375 2.13773 -2.97611e-19)
(43.1465 2.37546 3.3061e-19)
(43.2632 2.60276 3.77282e-19)
(43.397 2.83097 -1.96243e-19)
(43.5456 3.08152 2.05502e-19)
(43.7001 3.36102 6.85444e-21)
(43.8482 3.65868 7.29527e-21)
(44.0052 3.99017 0)
(44.1981 4.33649 8.0284e-21)
(44.3748 4.70263 4.0736e-21)
(44.5469 5.09539 -4.55215e-21)
(44.7259 5.47029 0)
(44.9209 5.83879 0)
(45.1355 6.21353 -1.34062e-19)
(45.3514 6.59372 0)
(45.5704 6.97338 5.24703e-20)
(45.8014 7.35173 0)
(46.0364 7.72907 1.90631e-22)
(46.3206 8.11951 -1.18953e-20)
(46.671 8.55124 2.83446e-21)
(47.0233 9.02552 -9.77966e-20)
(47.3498 9.49293 1.22082e-20)
(47.7195 9.91651 9.11536e-20)
(48.1296 10.3401 1.70159e-19)
(48.4914 10.7638 -7.37607e-21)
(48.8554 11.1954 0)
(49.2806 11.5548 -5.95773e-21)
(49.7059 11.874 7.41552e-21)
(50.1022 12.1835 0)
(50.6055 12.5178 -1.08324e-20)
(51.0545 12.7904 -5.08237e-20)
(51.1364 12.8524 -4.1524e-19)
(50.7905 12.7766 -9.59705e-21)
(48.9126 12.265 0)
(43.028 10.6649 0)
(29.7547 6.83897 1.36885e-19)
(9.35338 0.98823 -1.3545e-19)
(0.592145 -0.0755166 3.05735e-19)
(39.2982 0.0239829 -3.44479e-19)
(42.1955 -0.0630682 -3.85341e-19)
(42.2887 0.236381 -2.11548e-19)
(42.3564 0.229768 -2.42103e-19)
(42.3926 0.476328 -2.47772e-19)
(42.4823 0.550468 2.83711e-19)
(42.5673 0.74992 0)
(42.6823 0.894944 0)
(42.8129 1.06619 -1.97968e-19)
(42.9514 1.24859 -6.95817e-21)
(43.095 1.43233 2.25075e-19)
(43.2447 1.64007 1.67645e-20)
(43.4081 1.87186 2.70624e-19)
(43.5695 2.14545 -2.94707e-19)
(43.7291 2.44364 -3.53207e-19)
(43.8794 2.75257 0)
(44.0133 3.05948 0)
(44.1188 3.36816 -6.853e-21)
(44.2249 3.65841 -7.28841e-21)
(44.3244 3.94018 2.36195e-19)
(44.4674 4.20886 -8.03215e-21)
(44.6171 4.47403 0)
(44.7803 4.74817 0)
(44.9636 5.04493 2.89054e-20)
(45.1701 5.35769 1.06806e-19)
(45.3973 5.68582 -3.33528e-20)
(45.6434 6.03469 0)
(45.9252 6.39979 2.2693e-20)
(46.245 6.79159 0)
(46.5752 7.21506 -1.9058e-22)
(46.9239 7.6589 0)
(47.2663 8.09084 0)
(47.5888 8.47832 4.25445e-20)
(47.9545 8.88024 6.62926e-20)
(48.3352 9.34508 0)
(48.6698 9.79783 0)
(49.0191 10.2035 7.37243e-21)
(49.3971 10.5432 0)
(49.772 10.9339 5.95417e-21)
(50.1438 11.2909 -2.62831e-19)
(50.5442 11.5982 3.12261e-19)
(51.0119 11.9215 3.7475e-20)
(51.1928 12.0469 2.94114e-20)
(51.1702 12.0917 -5.07464e-19)
(50.1182 11.9034 -3.13193e-19)
(46.2771 10.9764 1.812e-18)
(37.1301 8.46783 -8.23742e-19)
(20.3898 3.74014 -9.72471e-19)
(4.9794 0.156634 7.97859e-19)
(0.0152794 -0.00308855 0)
(39.2616 0.000500507 3.41411e-19)
(42.3236 -0.103364 -3.64845e-19)
(42.4496 0.155304 2.08192e-19)
(42.5114 0.127617 -2.29092e-19)
(42.5621 0.344268 2.64394e-19)
(42.6761 0.389988 -2.92816e-19)
(42.7769 0.572748 -2.00009e-20)
(42.9194 0.708836 2.22691e-20)
(43.0638 0.88867 1.73475e-19)
(43.2102 1.08672 2.71454e-20)
(43.3524 1.30174 -2.39941e-19)
(43.4845 1.52307 -5.17701e-19)
(43.6174 1.74173 2.78262e-19)
(43.7642 1.94965 2.76288e-19)
(43.9173 2.1716 1.05679e-18)
(44.0987 2.41441 -4.48675e-20)
(44.2846 2.67548 5.00819e-20)
(44.4626 2.96141 -4.16463e-19)
(44.6311 3.27563 -5.36013e-20)
(44.8078 3.60258 -1.76034e-19)
(45.0007 3.93491 0)
(45.1997 4.27772 0)
(45.3782 4.61804 0)
(45.5642 4.94161 0)
(45.7739 5.26033 -1.1226e-19)
(46.0068 5.56641 1.71507e-19)
(46.2358 5.88507 0)
(46.4796 6.20968 -4.7422e-20)
(46.7579 6.53992 0)
(47.0495 6.86998 0)
(47.3877 7.20559 -1.6753e-19)
(47.7597 7.59732 1.4295e-19)
(48.1236 8.0633 -3.64796e-19)
(48.4831 8.52809 1.12597e-19)
(48.8658 8.93471 0)
(49.2434 9.31639 0)
(49.5746 9.71351 2.97391e-19)
(49.9051 10.1335 -1.06388e-18)
(50.2526 10.444 0)
(50.5867 10.742 -8.39369e-19)
(50.9914 11.0794 1.23647e-18)
(51.2389 11.3128 -1.40218e-18)
(51.25 11.3829 8.30565e-19)
(50.607 11.396 -1.1029e-18)
(48.1371 10.876 2.84052e-18)
(42.065 9.31253 -2.53205e-18)
(29.6274 6.09907 1.68452e-18)
(10.5819 1.14886 -3.76401e-18)
(2.03757 -0.0458293 4.49097e-18)
(-0.281535 -0.0554774 -2.89165e-18)
(39.1825 -0.0288715 6.59101e-19)
(42.4105 -0.134175 1.41295e-20)
(42.5678 0.0789465 0)
(42.6244 0.0281377 4.66912e-19)
(42.6897 0.223659 1.05117e-18)
(42.7989 0.249584 -3.56539e-20)
(42.9168 0.417356 0)
(43.0719 0.517552 0)
(43.237 0.66503 4.79086e-20)
(43.4183 0.814372 -5.33692e-20)
(43.6098 0.987284 9.29218e-19)
(43.8076 1.19894 -5.03539e-19)
(43.9996 1.45543 -5.6585e-19)
(44.1864 1.72603 6.09939e-19)
(44.3576 2.01725 -6.70872e-19)
(44.525 2.3089 -8.82397e-20)
(44.6697 2.60853 8.70449e-19)
(44.8056 2.89479 1.23851e-18)
(44.9157 3.17264 0)
(45.0357 3.44397 -4.54909e-19)
(45.1815 3.69793 -4.68333e-19)
(45.3572 3.94447 0)
(45.5324 4.2027 4.64408e-19)
(45.7251 4.46113 0)
(45.9322 4.74111 0)
(46.1764 5.02095 -1.70985e-19)
(46.4562 5.2984 -6.89053e-20)
(46.7634 5.59541 -3.64463e-20)
(47.1087 5.91514 0)
(47.4613 6.26948 0)
(47.853 6.66558 5.42955e-20)
(48.2582 7.05951 1.2588e-19)
(48.6407 7.40265 6.83765e-19)
(49.0368 7.78694 5.25658e-20)
(49.421 8.26255 5.74467e-20)
(49.7618 8.75621 -9.79843e-19)
(50.0737 9.1843 -6.59086e-20)
(50.3697 9.51373 1.45114e-18)
(50.6677 9.91189 9.59985e-19)
(51.0115 10.2771 5.30859e-19)
(51.2874 10.6077 1.28608e-18)
(51.338 10.7263 9.03346e-20)
(51.0188 10.8434 -1.82845e-18)
(49.5073 10.5996 -1.1196e-18)
(45.2971 9.61391 -3.23047e-18)
(35.4172 7.22829 3.66895e-18)
(17.795 2.69872 -1.6529e-18)
(5.166 0.124688 0)
(0.636494 -0.121266 0)
(-0.201805 -0.0689421 5.73943e-19)
(39.06 -0.066939 -1.95799e-18)
(42.4598 -0.167102 -7.22439e-19)
(42.6366 -0.00867557 8.10473e-19)
(42.6988 -0.0757337 -2.8372e-20)
(42.7804 0.0789469 -2.01983e-18)
(42.922 0.072596 3.50427e-20)
(43.0571 0.223075 0)
(43.2308 0.313138 1.36555e-18)
(43.4086 0.475578 4.71879e-20)
(43.59 0.64383 -5.72906e-22)
(43.7743 0.81211 -1.90326e-18)
(43.9586 0.994097 9.5577e-19)
(44.142 1.18869 1.31299e-21)
(44.336 1.39924 -5.32067e-19)
(44.5454 1.63767 0)
(44.758 1.88592 0)
(44.9662 2.16341 -6.76009e-19)
(45.1607 2.4684 -9.25651e-19)
(45.335 2.78796 0)
(45.4975 3.1154 4.53473e-19)
(45.6693 3.44547 4.66764e-19)
(45.8523 3.76084 1.10266e-19)
(46.0151 4.06847 -1.15587e-19)
(46.1939 4.33444 -3.46288e-19)
(46.3982 4.57861 -1.08859e-19)
(46.6108 4.8318 -5.95693e-20)
(46.8435 5.07163 1.68504e-19)
(47.1165 5.31524 2.35667e-20)
(47.4384 5.56828 9.86717e-20)
(47.7856 5.82773 -2.49433e-19)
(48.1866 6.10598 0)
(48.6096 6.46476 0)
(49.0178 6.93087 7.9896e-20)
(49.4507 7.41754 -5.87035e-19)
(49.8874 7.86981 8.84066e-19)
(50.2496 8.28762 1.69427e-18)
(50.5561 8.72355 -6.35022e-19)
(50.8737 9.19625 -1.70385e-18)
(51.1839 9.53211 -1.97527e-18)
(51.4197 9.90672 -1.19319e-18)
(51.5118 10.0933 -8.02153e-20)
(51.3667 10.2312 1.60684e-18)
(50.3371 10.1826 0)
(47.2037 9.57173 1.10777e-18)
(39.249 7.79986 1.28327e-18)
(24.9412 4.26778 1.48999e-18)
(8.71103 0.5425 5.01329e-18)
(2.07156 -0.177967 -1.85143e-18)
(0.0710721 -0.227284 0)
(-0.00436805 -0.102873 0)
(38.8929 -0.0985538 2.33306e-20)
(42.4689 -0.198348 1.45661e-18)
(42.6704 -0.0795776 -8.34348e-19)
(42.7243 -0.159308 1.77489e-18)
(42.8218 -0.0271348 1.0624e-18)
(42.9541 -0.0672118 -8.89124e-23)
(43.1131 0.0439492 -3.82706e-20)
(43.3101 0.0746688 -1.27835e-18)
(43.5189 0.17937 -9.39738e-20)
(43.7501 0.300463 -1.02892e-19)
(43.9966 0.464041 9.17026e-19)
(44.2478 0.67533 1.26166e-19)
(44.4809 0.909239 1.09913e-18)
(44.704 1.17213 1.20352e-18)
(44.9124 1.45838 -1.61515e-19)
(45.1051 1.75241 1.80162e-19)
(45.283 2.04368 0)
(45.4295 2.33323 8.28663e-19)
(45.5518 2.62106 0)
(45.6693 2.8931 0)
(45.8031 3.14929 0)
(45.9689 3.38955 2.26393e-19)
(46.1275 3.62537 -7.21212e-19)
(46.2868 3.87413 4.41069e-19)
(46.4837 4.10147 0)
(46.7173 4.30925 6.25681e-20)
(46.9802 4.51243 1.5654e-19)
(47.2898 4.71699 5.39191e-20)
(47.6475 4.94153 -1.81914e-19)
(48.0425 5.20126 2.57116e-19)
(48.5058 5.5003 -4.629e-19)
(49.0015 5.81071 3.07392e-19)
(49.4995 6.13086 1.05315e-18)
(50.007 6.53568 0)
(50.463 7.05304 1.0389e-18)
(50.8618 7.63487 -2.34844e-18)
(51.1895 8.19039 -1.38396e-19)
(51.4282 8.62531 1.68546e-18)
(51.594 9.1103 1.00494e-18)
(51.7662 9.47655 0)
(51.6871 9.68724 1.49838e-18)
(50.8784 9.70949 -1.73667e-18)
(48.4452 9.36532 3.95459e-18)
(42.2378 8.06558 0)
(30.7217 5.33647 -5.3092e-18)
(12.5237 1.06966 1.47904e-18)
(3.80916 -0.293954 -1.65696e-18)
(0.594897 -0.503103 -1.85354e-18)
(0.104829 -0.408517 4.12968e-18)
(0.312046 -0.223189 -1.50646e-21)
(38.6971 -0.129859 1.27877e-18)
(42.4513 -0.215267 -1.40572e-18)
(42.662 -0.149747 1.56638e-18)
(42.7253 -0.241616 -3.52021e-18)
(42.8267 -0.160402 2.00754e-18)
(42.9829 -0.212473 -1.35868e-19)
(43.1502 -0.117734 1.27759e-18)
(43.3569 -0.0910328 0)
(43.5669 0.0152954 1.47736e-18)
(43.7945 0.0965335 -1.73622e-18)
(44.0329 0.212857 1.13832e-21)
(44.2849 0.35612 1.25206e-19)
(44.5452 0.533151 -1.09545e-18)
(44.816 0.743282 2.31114e-21)
(45.0843 0.984903 -1.15309e-18)
(45.3469 1.26584 -1.80484e-19)
(45.5995 1.57689 0)