/*--------------------------------*- C++ -*----------------------------------*\
| =========                 |                                                 |
| \\      /  F ield         | OpenFOAM: The Open Source CFD Toolbox           |
|  \\    /   O peration     | Version:  v1912                                 |
|   \\  /    A nd           | Website:  www.openfoam.com                      |
|    \\/     M anipulation  |                                                 |
\*---------------------------------------------------------------------------*/
FoamFile
{
    version     2.0;
    format      ascii;
    class       surfaceScalarField;
    location    "0.39";
    object      phi;
}
// * * * * * * * * * * * * * * * * * * * * * * * * * * * * * * * * * * * * * //

dimensions      [0 3 -1 0 0 0 0];
oriented        oriented;


internalField   nonuniform List<scalar> 
13060
(
0.0064579
0.987595
-0.994053
0.00926331
0.943592
-0.946397
0.0118145
0.896821
-0.899372
0.0141225
0.851877
-0.854185
0.0159754
0.809163
-0.811016
0.0172431
0.769113
-0.770381
0.0179806
0.731694
-0.732432
0.0185039
0.69616
-0.696683
0.018845
0.662387
-0.662728
0.019034
0.630242
-0.630431
0.0192344
0.599734
-0.599935
0.0192996
0.570793
-0.570859
0.0193861
0.543211
-0.543298
0.0194936
0.516795
-0.516903
0.0195818
0.491569
-0.491657
0.0196094
0.467431
-0.467459
0.0195951
0.444266
-0.444252
0.0195755
0.422133
-0.422113
0.0196321
0.400891
-0.400947
0.0197797
0.380575
-0.380723
0.0199991
0.361312
-0.361531
0.0201776
0.342986
-0.343165
0.020236
0.3255
-0.325558
0.0200947
0.308897
-0.308756
0.0197883
0.293085
-0.292778
0.0193716
0.278066
-0.27765
0.018872
0.263611
-0.263112
0.0183866
0.249918
-0.249433
0.017898
0.236972
-0.236483
0.0173609
0.224665
-0.224127
0.0167044
0.213138
-0.212482
0.0158933
0.202232
-0.201421
0.0150907
0.191809
-0.191006
0.0143231
0.182153
-0.181385
0.0135288
0.173048
-0.172254
0.0126749
0.164405
-0.163551
0.0117053
0.156403
-0.155434
0.0105647
0.148928
-0.147788
0.00930938
0.141844
-0.140589
0.00805266
0.135217
-0.13396
0.00681863
0.129046
-0.127812
0.00558541
0.123292
-0.122059
0.00435027
0.117873
-0.116638
0.00311213
0.112897
-0.111658
0.0019386
0.108112
-0.106938
0.000845922
0.103803
-0.10271
-0.000207131
0.0993565
-0.0983035
-0.00134023
0.0960877
-0.0949546
-0.00160201
0.0882482
-0.0879864
0.0612669
-0.0628689
0.00660237
0.980993
0.00886529
0.941329
0.0109124
0.894774
0.0124354
0.850354
0.0135053
0.808093
0.0141962
0.768422
0.0145195
0.731371
0.014584
0.696095
0.0144879
0.662483
0.014216
0.630514
0.0139757
0.599975
0.0137262
0.571043
0.0136204
0.543317
0.0136236
0.516792
0.013773
0.491419
0.0139619
0.467242
0.0141947
0.444034
0.0143599
0.421968
0.0143952
0.400855
0.0142755
0.380695
0.0140418
0.361545
0.0138443
0.343184
0.0137338
0.32561
0.0137095
0.308922
0.0137092
0.293085
0.0137635
0.278012
0.0136438
0.263731
0.0133192
0.250243
0.012877
0.237414
0.0123523
0.225189
0.0117553
0.213736
0.0111285
0.202859
0.0103608
0.192576
0.0094815
0.183032
0.00852387
0.174006
0.00753877
0.16539
0.00657666
0.157366
0.00565555
0.149849
0.00472358
0.142776
0.00377062
0.13617
0.00278758
0.13003
0.00183782
0.124242
0.000930948
0.11878
0.000101937
0.113726
-0.000773984
0.108988
-0.00156103
0.10459
-0.00237163
0.100167
-0.0026704
0.0963864
-0.00220332
0.0877811
0.0590635
0.00693841
0.974055
0.00898437
0.939283
0.0102645
0.893493
0.0111204
0.849498
0.0113266
0.807887
0.0111971
0.768551
0.0111019
0.731466
0.0110006
0.696196
0.0108325
0.662651
0.0106314
0.630715
0.0104396
0.600166
0.0102998
0.571183
0.0101104
0.543507
0.00994257
0.51696
0.0098011
0.491561
0.00963829
0.467405
0.00948725
0.444185
0.00937469
0.42208
0.0093597
0.40087
0.00948939
0.380565
0.00960312
0.361432
0.00957641
0.34321
0.00936789
0.325819
0.00899432
0.309295
0.0085064
0.293573
0.00792953
0.278589
0.00741676
0.264244
0.00698347
0.250676
0.00653322
0.237864
0.00601151
0.225711
0.00540414
0.214343
0.00476495
0.203498
0.00417294
0.193168
0.00359429
0.183611
0.00298903
0.174611
0.00234634
0.166033
0.00165401
0.158058
0.000892832
0.15061
0.000113183
0.143556
-0.000674655
0.136958
-0.00139372
0.130749
-0.00207265
0.124921
-0.00270463
0.119412
-0.00327416
0.114295
-0.0037148
0.109429
-0.00404136
0.104916
-0.00426925
0.100395
-0.00391795
0.0960351
-0.00281704
0.0866802
0.0562465
0.00603855
0.968016
0.00711619
0.938205
0.00790684
0.892703
0.00817115
0.849233
0.00814413
0.807914
0.00793117
0.768764
0.00752218
0.731875
0.00702697
0.696691
0.00651512
0.663163
0.00597565
0.631255
0.00538084
0.600761
0.00504148
0.571522
0.00483438
0.543714
0.00468833
0.517106
0.00459608
0.491653
0.00459276
0.467408
0.004581
0.444197
0.00451446
0.422147
0.0042779
0.401107
0.0039039
0.380939
0.00358474
0.361751
0.00334855
0.343447
0.00317162
0.325996
0.00306014
0.309407
0.00300026
0.293633
0.00289942
0.27869
0.00262174
0.264521
0.00219768
0.2511
0.00174982
0.238312
0.00125989
0.226201
0.00077321
0.21483
0.00021604
0.204055
-0.000480093
0.193865
-0.00119882
0.184329
-0.00193255
0.175345
-0.0026802
0.16678
-0.00336075
0.158738
-0.00393787
0.151188
-0.00447806
0.144096
-0.00499293
0.137472
-0.0054689
0.131225
-0.00584956
0.125302
-0.00614196
0.119705
-0.00631911
0.114472
-0.00636376
0.109473
-0.00626183
0.104815
-0.00607793
0.100211
-0.00532195
0.0952792
-0.00353945
0.0848977
0.052707
0.00566048
0.962356
0.00631935
0.937546
0.00633027
0.892692
0.00581021
0.849753
0.00520141
0.808523
0.00438474
0.769581
0.00371231
0.732548
0.0032476
0.697156
0.00282797
0.663582
0.00246275
0.63162
0.00213961
0.601084
0.00175099
0.571911
0.00138134
0.544083
0.00104784
0.517439
0.000739139
0.491962
0.00041934
0.467728
4.72702e-05
0.444569
-0.000233603
0.422428
-0.000299113
0.401172
-0.000328097
0.380968
-0.000455617
0.361878
-0.000703748
0.343695
-0.00113699
0.326429
-0.00167436
0.309944
-0.00237636
0.294335
-0.00306426
0.279378
-0.00361727
0.265074
-0.0040674
0.25155
-0.00455625
0.238801
-0.00506201
0.226707
-0.00560653
0.215374
-0.0061146
0.204563
-0.00657303
0.194323
-0.00701416
0.184771
-0.00740636
0.175737
-0.00778644
0.16716
-0.00820127
0.159153
-0.00864229
0.151629
-0.0090153
0.144469
-0.00926663
0.137724
-0.00942813
0.131386
-0.00951374
0.125387
-0.00948774
0.119679
-0.0093166
0.114301
-0.00901661
0.109173
-0.00852101
0.104319
-0.00791415
0.0996042
-0.00668464
0.0940497
-0.0042478
0.0824609
0.0484592
0.00429057
0.958065
0.00378208
0.938055
0.00303043
0.893444
0.00236453
0.850419
0.00174489
0.809142
0.00100978
0.770316
0.00012348
0.733434
-0.000818845
0.698099
-0.00167657
0.66444
-0.00247644
0.63242
-0.00307915
0.601687
-0.00349604
0.572327
-0.0038628
0.54445
-0.0042037
0.51778
-0.00446997
0.492228
-0.00465369
0.467912
-0.0048531
0.444768
-0.00521556
0.42279
-0.0058123
0.401769
-0.00644786
0.381604
-0.00692193
0.362352
-0.00728068
0.344054
-0.00746101
0.326609
-0.00758634
0.31007
-0.00763173
0.29438
-0.00782827
0.279574
-0.008255
0.265501
-0.00876807
0.252063
-0.009226
0.239259
-0.0097156
0.227196
-0.0101946
0.215853
-0.010691
0.20506
-0.0112086
0.194841
-0.0116893
0.185251
-0.0121689
0.176217
-0.0126132
0.167605
-0.0129288
0.159469
-0.0130993
0.151799
-0.0131952
0.144565
-0.0132386
0.137767
-0.0131614
0.131309
-0.0129423
0.125168
-0.0126066
0.119343
-0.0121437
0.113838
-0.0115418
0.108571
-0.0107755
0.103553
-0.009847
0.0986758
-0.00819099
0.0923936
-0.00498036
0.0792502
0.0434789
0.00370072
0.954364
0.00267887
0.939077
0.00127267
0.89485
4.73688e-05
0.851645
-0.00145805
0.810648
-0.00271905
0.771577
-0.00364565
0.73436
-0.00436432
0.698817
-0.00501491
0.665091
-0.00558414
0.632989
-0.00617288
0.602276
-0.00674874
0.572903
-0.00726229
0.544964
-0.00778441
0.518302
-0.00835563
0.492799
-0.00897434
0.468531
-0.00950181
0.445295
-0.00977126
0.423059
-0.00991967
0.401918
-0.010167
0.381851
-0.0105554
0.362741
-0.0110836
0.344582
-0.0117738
0.3273
-0.0126682
0.310964
-0.0135081
0.29522
-0.0141677
0.280234
-0.0146108
0.265944
-0.0150135
0.252466
-0.0154733
0.239719
-0.0159263
0.227649
-0.0163095
0.216236
-0.0166451
0.205395
-0.0169343
0.19513
-0.0171538
0.185471
-0.0172472
0.17631
-0.0172986
0.167656
-0.0173527
0.159523
-0.0173715
0.151818
-0.0172819
0.144476
-0.0170561
0.137541
-0.016719
0.130972
-0.0162662
0.124715
-0.0156749
0.118752
-0.014936
0.113099
-0.014091
0.107726
-0.0131629
0.102624
-0.0118081
0.097321
-0.00963259
0.0902182
-0.00567224
0.0752899
0.0378066
0.00266794
0.951696
0.000777981
0.940967
-0.00112814
0.896756
-0.00264998
0.853166
-0.00404398
0.812042
-0.0053984
0.772932
-0.00672287
0.735685
-0.0079489
0.700043
-0.00903639
0.666178
-0.01
0.633953
-0.0108109
0.603087
-0.0115427
0.573635
-0.0121933
0.545614
-0.0127949
0.518904
-0.0132813
0.493286
-0.0137044
0.468954
-0.0142965
0.445888
-0.0151074
0.42387
-0.0159698
0.40278
-0.016705
0.382587
-0.0172969
0.363333
-0.0176681
0.344953
-0.0179187
0.32755
-0.0179736
0.311019
-0.0180907
0.295337
-0.0184047
0.280548
-0.0189188
0.266458
-0.0194053
0.252953
-0.0198214
0.240135
-0.0202105
0.228038
-0.0205946
0.216621
-0.0209405
0.205741
-0.0212375
0.195427
-0.0214772
0.185711
-0.0216887
0.176521
-0.0217927
0.16776
-0.0217173
0.159447
-0.021476
0.151577
-0.0211434
0.144143
-0.020722
0.13712
-0.0201643
0.130414
-0.0194644
0.124015
-0.0186522
0.117939
-0.0177202
0.112167
-0.0166394
0.106646
-0.0155105
0.101496
-0.0137958
0.0956062
-0.011145
0.0875673
-0.00635137
0.0704963
0.0314553
0.00185797
0.949838
-0.000390469
0.943215
-0.002557
0.898922
-0.00463173
0.855241
-0.0065156
0.813926
-0.00805078
0.774467
-0.00927389
0.736908
-0.0103292
0.701098
-0.0112786
0.667128
-0.0122053
0.634879
-0.0131454
0.604027
-0.0140199
0.57451
-0.0148721
0.546466
-0.0157551
0.519787
-0.0167328
0.494263
-0.0176103
0.469831
-0.0182396
0.446517
-0.0186456
0.424276
-0.0190082
0.403143
-0.0195049
0.383083
-0.0201767
0.364004
-0.0210159
0.345792
-0.022082
0.328616
-0.023165
0.312102
-0.0240459
0.296218
-0.0246425
0.281144
-0.0250149
0.266831
-0.02537
0.253308
-0.0257325
0.240497
-0.0260598
0.228366
-0.0262894
0.21685
-0.0264272
0.205879
-0.0264917
0.195491
-0.0264267
0.185646
-0.0262066
0.176301
-0.0259444
0.167498
-0.0256593
0.159162
-0.025308
0.151225
-0.0248262
0.143661
-0.0242016
0.136495
-0.023461
0.129673
-0.0226053
0.12316
-0.0216254
0.116959
-0.0205313
0.111073
-0.019344
0.105458
-0.0179057
0.100057
-0.0158901
0.0935907
-0.0126614
0.0843386
-0.00698129
0.0648162
0.024474
0.00124948
0.948589
-0.00170235
0.946167
-0.00418953
0.90141
-0.00628902
0.857341
-0.00814916
0.815786
-0.00988996
0.776208
-0.0115055
0.738524
-0.013046
0.702639
-0.0144519
0.668533
-0.015684
0.636112
-0.0168612
0.605204
-0.0179813
0.57563
-0.0190019
0.547487
-0.0198991
0.520684
-0.0207374
0.495102
-0.021645
0.470739
-0.0227614
0.447633
-0.0240088
0.425524
-0.025093
0.404227
-0.0259312
0.383921
-0.0265988
0.364672
-0.0270523
0.346246
-0.0272218
0.328786
-0.0273497
0.31223
-0.0276117
0.29648
-0.0280957
0.281628
-0.0286795
0.267414
-0.0291399
0.253768
-0.0295052
0.240863
-0.0298289
0.228689
-0.0300675
0.217089
-0.0302344
0.206046
-0.0303117
0.195569
-0.0303325
0.185666
-0.030296
0.176265
-0.0301031
0.167305
-0.0297114
0.158771
-0.0291444
0.150658
-0.028473
0.14299
-0.0277039
0.135726
-0.0268073
0.128777
-0.0257827
0.122135
-0.0246433
0.11582
-0.0233896
0.10982
-0.0221665
0.104235
-0.0204248
0.0983155
-0.0180559
0.0912218
-0.014038
0.0803207
-0.00751215
0.0582903
0.0169618
0.000838788
0.94775
-0.00222991
0.949236
-0.0048883
0.904068
-0.00737471
0.859827
-0.00944618
0.817857
-0.0112293
0.777991
-0.0128466
0.740141
-0.0143076
0.7041
-0.0156944
0.66992
-0.0170243
0.637441
-0.0182918
0.606471
-0.0195604
0.576898
-0.0207846
0.548711
-0.0220471
0.521947
-0.0233396
0.496394
-0.0244439
0.471843
-0.0252694
0.448459
-0.0259555
0.42621
-0.0267293
0.405001
-0.0276181
0.38481
-0.0286681
0.365722
-0.0298872
0.347465
-0.0311822
0.330081
-0.0323326
0.31338
-0.0332324
0.29738
-0.0337704
0.282166
-0.0341324
0.267777
-0.0344959
0.254132
-0.0348339
0.241201
-0.0350473
0.228903
-0.0351314
0.217173
-0.0351156
0.20603
-0.0350109
0.195464
-0.0347297
0.185385
-0.0342917
0.175827
-0.0338039
0.166817
-0.0332751
0.158242
-0.0326752
0.150058
-0.0319439
0.142258
-0.0310588
0.134841
-0.0300541
0.127772
-0.0289471
0.121028
-0.0277558
0.114629
-0.026504
0.108568
-0.0250541
0.102785
-0.022986
0.0962474
-0.0200168
0.0882525
-0.0148667
0.0751707
-0.00673165
0.0501553
0.0102302
0.000604827
0.947145
-0.00252947
0.95237
-0.00523301
0.906772
-0.00780987
0.862404
-0.0100624
0.82011
-0.0121964
0.780125
-0.014155
0.742099
-0.0160082
0.705953
-0.0177373
0.671649
-0.0193853
0.639089
-0.0209854
0.608072
-0.0225031
0.578416
-0.023917
0.550125
-0.0251598
0.523189
-0.0264034
0.497638
-0.027865
0.473305
-0.0294639
0.450058
-0.0309874
0.427733
-0.0322792
0.406292
-0.0332889
0.38582
-0.0340354
0.366468
-0.0345477
0.347977
-0.0348939
0.330427
-0.035261
0.313747
-0.0357644
0.297883
-0.0364249
0.282827
-0.0370517
0.268403
-0.0375226
0.254602
-0.0378796
0.241558
-0.0381614
0.229184
-0.038339
0.21735
-0.0384053
0.206096
-0.0383411
0.1954
-0.0382243
0.185268
-0.0380373
0.17564
-0.037683
0.166463
-0.0371253
0.157684
-0.0363809
0.149314
-0.0355227
0.1414
-0.0345761
0.133895
-0.033509
0.126705
-0.0323173
0.119836
-0.031007
0.113318
-0.0297284
0.107289
-0.0279738
0.101031
-0.0256535
0.0939271
-0.0217944
0.0843935
-0.0149188
0.068295
-0.00492542
0.0401619
0.00530477
0.00081633
0.946329
-0.00221976
0.955406
-0.00507241
0.909624
-0.00762638
0.864958
-0.0098841
0.822367
-0.0121145
0.782355
-0.014076
0.744061
-0.0159794
0.707857
-0.0177767
0.673447
-0.0194467
0.640759
-0.0211006
0.609725
-0.0227603
0.580076
-0.0244731
0.551838
-0.0262252
0.524941
-0.0278157
0.499228
-0.0291364
0.474625
-0.0302604
0.451182
-0.031427
0.4289
-0.0327095
0.407575
-0.034093
0.387203
-0.0355401
0.367916
-0.0370658
0.349503
-0.038525
0.331886
-0.0397962
0.315019
-0.0407129
0.2988
-0.0413148
0.283429
-0.0417802
0.268869
-0.0422142
0.255036
-0.0425537
0.241897
-0.0427247
0.229355
-0.0427808
0.217407
-0.042757
0.206072
-0.0426372
0.19528
-0.0423138
0.184945
-0.0418185
0.175145
-0.0412402
0.165885
-0.0406021
0.157046
-0.0399051
0.148617
-0.0390886
0.140584
-0.0380994
0.132905
-0.0369781
0.125584
-0.0357461
0.118604
-0.0345863
0.112159
-0.0331447
0.105848
-0.0310636
0.0989495
-0.0280012
0.0908646
-0.0229584
0.0793507
-0.0146078
0.0599444
-0.00313446
0.0286886
0.0021703
0.000996135
0.945333
-0.0016522
0.958054
-0.00434451
0.912316
-0.00690778
0.867521
-0.00932858
0.824788
-0.0116713
0.784698
-0.0139146
0.746304
-0.0161042
0.710046
-0.0182007
0.675543
-0.0202934
0.642852
-0.0223313
0.611763
-0.0243279
0.582072
-0.0261904
0.5537
-0.0279558
0.526707
-0.0298515
0.501124
-0.0319046
0.476678
-0.0339276
0.453205
-0.0357516
0.430724
-0.0372716
0.409095
-0.0385022
0.388434
-0.0394371
0.36885
-0.0401861
0.350252
-0.040837
0.332537
-0.0415284
0.31571
-0.042341
0.299613
-0.043165
0.284253
-0.0438774
0.269581
-0.0444594
0.255618
-0.0449354
0.242373
-0.0453026
0.229723
-0.0455488
0.217653
-0.0456304
0.206154
-0.0455466
0.195196
-0.0454195
0.184818
-0.0452373
0.174962
-0.0449098
0.165557
-0.0443879
0.156524
-0.0436583
0.147887
-0.0427854
0.139711
-0.0418324
0.131952
-0.0407636
0.124515
-0.0396602
0.117501
-0.0384733
0.110972
-0.0366581
0.104032
-0.0342185
0.09651
-0.0304246
0.0870707
-0.0238633
0.0727894
-0.0135184
0.0495995
-0.00197251
0.0171427
0.000197792
0.0018526
0.94348
-0.000611444
0.960518
-0.00331084
0.915016
-0.00573706
0.869947
-0.00802395
0.827075
-0.0102011
0.786875
-0.0122899
0.748393
-0.0144365
0.712193
-0.016546
0.677653
-0.0186589
0.644965
-0.0207765
0.613881
-0.0229633
0.584259
-0.0252414
0.555979
-0.0274509
0.528916
-0.0294212
0.503094
-0.0312062
0.478463
-0.0329316
0.45493
-0.0347521
0.432544
-0.0366511
0.410994
-0.0385321
0.390315
-0.0404224
0.370741
-0.0423215
0.352151
-0.0440244
0.33424
-0.0453941
0.31708
-0.0464987
0.300717
-0.0473485
0.285102
-0.0480763
0.270309
-0.0486804
0.256222
-0.0491115
0.242804
-0.0493978
0.230009
-0.0495732
0.217828
-0.0496864
0.206267
-0.0497193
0.195229
-0.0495403
0.184639
-0.049167
0.174589
-0.0486613
0.165051
-0.0480645
0.155927
-0.0474264
0.147249
-0.0466936
0.138978
-0.0457706
0.131029
-0.0447525
0.123497
-0.0438075
0.116556
-0.0423763
0.109541
-0.0404954
0.102151
-0.0377318
0.0937463
-0.0328388
0.0821777
-0.0240667
0.0640174
-0.0104375
0.0359703
-0.00124907
0.00795423
-0.00105128
0.00237414
0.941106
0.000644148
0.962248
-0.00148513
0.917145
-0.00365259
0.872115
-0.0060035
0.829426
-0.00829448
0.789166
-0.0105831
0.750682
-0.0129992
0.714609
-0.0154545
0.680108
-0.0179883
0.647499
-0.0205355
0.616428
-0.0230243
0.586748
-0.0254579
0.558412
-0.0279597
0.531418
-0.0305735
0.505708
-0.033208
0.481098
-0.0356779
0.4574
-0.0378681
0.434735
-0.0398629
0.412989
-0.0415918
0.392044
-0.0429194
0.372068
-0.0440346
0.353266
-0.0451816
0.335387
-0.046322
0.31822
-0.0474126
0.301808
-0.0484347
0.286124
-0.0493384
0.271213
-0.0501544
0.257038
-0.0508691
0.243519
-0.0514689
0.230609
-0.051943
0.218302
-0.0522216
0.206546
-0.0523139
0.195321
-0.0523726
0.184698
-0.0523925
0.174609
-0.0522936
0.164953
-0.0520227
0.155656
-0.0515154
0.146742
-0.0508087
0.138271
-0.0500339
0.130255
-0.0493173
0.12278
-0.0482712
0.11551
-0.0467339
0.108003
-0.0445247
0.0999423
-0.0406551
0.0898768
-0.0334686
0.0749912
-0.0214618
0.0520105
-0.00633561
0.0208442
-0.000693058
0.00231168
-0.00174434
0.00395043
0.937156
0.00219575
0.964003
0.000104348
0.919237
-0.00167649
0.873896
-0.00353506
0.831285
-0.00541171
0.791043
-0.00759309
0.752863
-0.00991078
0.716927
-0.0123404
0.682537
-0.0148427
0.650001
-0.0174457
0.619031
-0.0201858
0.589488
-0.0229937
0.56122
-0.0256799
0.534104
-0.0282305
0.508259
-0.030737
0.483604
-0.033278
0.459941
-0.0358287
0.437285
-0.0383303
0.41549
-0.0408412
0.394555
-0.0433592
0.374586
-0.0457336
0.355641
-0.0477449
0.337398
-0.049475
0.31995
-0.0509662
0.303299
-0.0522056
0.287364
-0.053244
0.272251
-0.0541026
0.257897
-0.0547899
0.244206
-0.0553255
0.231144
-0.0557425
0.218719
-0.0561187
0.206922
-0.0564395
0.195642
-0.056579
0.184837
-0.056519
0.174549
-0.0562969
0.16473
-0.0559494
0.155309
-0.0555695
0.146362
-0.0551425
0.137844
-0.0545953
0.129707
-0.0538595
0.122044
-0.0526913
0.114342
-0.0509743
0.106286
-0.0480202
0.0969881
-0.0423406
0.0841972
-0.0318515
0.0645022
-0.0152264
0.0353854
-0.0031187
0.00873645
-2.27141e-05
-0.000784306
-0.00176705
0.00460232
0.932553
0.00407321
0.964532
0.00289967
0.92041
0.00116133
0.875634
-0.000680937
0.833127
-0.00261575
0.792977
-0.00495429
0.755202
-0.00744717
0.71942
-0.0101503
0.685241
-0.0130456
0.652897
-0.0160378
0.622023
-0.0190449
0.592495
-0.0221576
0.564333
-0.0254063
0.537353
-0.0286826
0.511535
-0.0318775
0.486799
-0.0348972
0.462961
-0.0377043
0.440092
-0.0403275
0.418114
-0.0426585
0.396886
-0.0445943
0.376522
-0.0463321
0.357378
-0.0480827
0.339149
-0.0496883
0.321556
-0.051173
0.304784
-0.0525673
0.288758
-0.0538418
0.273526
-0.0549975
0.259053
-0.0560304
0.245239
-0.056973
0.232087
-0.0578238
0.21957
-0.0584789
0.207577
-0.0589555
0.196119
-0.0593817
0.185263
-0.0597738
0.174941
-0.0600731
0.16503
-0.0602365
0.155472
-0.0601561
0.146282
-0.0598372
0.137526
-0.0594286
0.129299
-0.0586791
0.121295
-0.0574019
0.113065
-0.0551357
0.10402
-0.0505064
0.0923588
-0.0411802
0.074871
-0.0253915
0.0487134
-0.00819674
0.0181906
-0.00135097
0.00189067
0.000171106
-0.00230638
-0.00159595
0.00578139
0.926772
0.00530826
0.965005
0.00460629
0.921112
0.00356796
0.876672
0.00230642
0.834388
0.00064428
0.79464
-0.00135847
0.757204
-0.00361759
0.721679
-0.00613853
0.687762
-0.00885173
0.65561
-0.0118012
0.624973
-0.0149865
0.59568
-0.0182456
0.567592
-0.0215546
0.540662
-0.0248396
0.51482
-0.0281702
0.49013
-0.0315851
0.466376
-0.0349456
0.443453
-0.0382392
0.421407
-0.0415143
0.400161
-0.0447584
0.379766
-0.0476495
0.36027
-0.0501993
0.341699
-0.0524716
0.323828
-0.0544266
0.306739
-0.0560593
0.290391
-0.0574588
0.274925
-0.0586813
0.260275
-0.059722
0.24628
-0.0605854
0.23295
-0.0613165
0.220301
-0.0620425
0.208303
-0.0627841
0.19686
-0.0634235
0.185903
-0.063883
0.175401
-0.0641674
0.165314
-0.0643081
0.155613
-0.064414
0.146388
-0.0644593
0.137571
-0.0641789
0.129018
-0.0634146
0.120531
-0.0617674
0.111417
-0.0580133
0.100266
-0.0500638
0.0844093
-0.0357994
0.0606065
-0.0155326
0.0284467
-0.00341631
0.00607426
7.3107e-06
-0.00153295
0.000396903
-0.00269597
-0.00119905
0.00568919
0.921083
0.00671995
0.963975
0.00685195
0.92098
0.00609191
0.877432
0.00506024
0.83542
0.00347086
0.796229
0.00154621
0.759129
-0.000796967
0.724022
-0.00348584
0.69045
-0.00647511
0.658599
-0.00970939
0.628207
-0.0131502
0.599121
-0.0168178
0.57126
-0.0206647
0.544509
-0.0245911
0.518746
-0.0284305
0.493969
-0.0321543
0.470099
-0.0357313
0.44703
-0.0390827
0.424759
-0.0421218
0.4032
-0.0448467
0.382491
-0.0474134
0.362836
-0.0498443
0.344129
-0.0520597
0.326043
-0.0541438
0.308823
-0.056049
0.292296
-0.0577472
0.276623
-0.0592675
0.261796
-0.0606546
0.247667
-0.0619952
0.234291
-0.0632792
0.221585
-0.0643741
0.209398
-0.0652783
0.197764
-0.0661224
0.186747
-0.0669994
0.176278
-0.0678647
0.166179
-0.0686509
0.156399
-0.0691915
0.146928
-0.0693885
0.137768
-0.0692048
0.128835
-0.0681472
0.119473
-0.0651704
0.108441
-0.0585821
0.0936777
-0.0455902
0.0714174
-0.02405
0.0390663
-0.00669488
0.0110917
-0.000614661
-5.96158e-06
0.000830737
-0.00297835
0.000560456
-0.00242569
-0.000638589
0.00699748
0.914085
0.00757698
0.963395
0.00781095
0.920746
0.00764164
0.877602
0.00725913
0.835803
0.00625379
0.797234
0.00488063
0.760502
0.00304343
0.725859
0.00080553
0.692688
-0.00180053
0.661205
-0.00482417
0.631231
-0.00818605
0.602483
-0.011801
0.574874
-0.0156284
0.548336
-0.0196619
0.52278
-0.0238656
0.498173
-0.0281734
0.474407
-0.0324875
0.451344
-0.0367805
0.429052
-0.0410476
0.407467
-0.0450992
0.386543
-0.0486529
0.36639
-0.0518423
0.347319
-0.054667
0.328868
-0.057069
0.311225
-0.0591794
0.294406
-0.0610377
0.278482
-0.0626855
0.263443
-0.0641103
0.249092
-0.065311
0.235492
-0.0663451
0.222619
-0.0674142
0.210467
-0.0686326
0.198983
-0.0698718
0.187986
-0.0709584
0.177364
-0.0718816
0.167103
-0.0726841
0.157202
-0.0734478
0.147692
-0.0740339
0.138354
-0.0738551
0.128656
-0.0718859
0.117504
-0.0667415
0.103296
-0.0551165
0.0820526
-0.0336379
0.0499388
-0.0121315
0.01756
-0.00290479
0.00186492
6.09644e-05
-0.00297171
0.000745501
-0.00366289
0.000442955
-0.00212314
-0.000195633
0.00638181
0.907703
0.00821101
0.961566
0.00942437
0.919533
0.00938953
0.877637
0.00914239
0.83605
0.00834367
0.798033
0.00707238
0.761773
0.00527355
0.727658
0.00309266
0.694869
0.000461332
0.663836
-0.00260539
0.634297
-0.00616868
0.606046
-0.0101315
0.578837
-0.0143739
0.552579
-0.0187833
0.527189
-0.0232685
0.502658
-0.0277729
0.478912
-0.032218
0.455789
-0.036437
0.433271
-0.040372
0.411402
-0.0441533
0.390324
-0.0477459
0.369983
-0.0510311
0.350604
-0.0540757
0.331913
-0.0568122
0.313962
-0.0592423
0.296837
-0.0613646
0.280604
-0.0632246
0.265303
-0.0648926
0.25076
-0.0665011
0.2371
-0.068094
0.224212
-0.0695536
0.211927
-0.0707914
0.200221
-0.0720062
0.189201
-0.0733975
0.178755
-0.0749476
0.168653
-0.0765906
0.158845
-0.0779339
0.149035
-0.0786043
0.139024
-0.0777887
0.12784
-0.0740079
0.113723
-0.0640849
0.0933733
-0.0436455
0.0616132
-0.0194163
0.0257096
-0.00660174
0.00474542
-0.00227521
-0.0024616
-0.000813517
-0.00443341
-0.000192611
-0.0042838
4.4854e-05
-0.00236061
-0.000150779
0.0066928
0.901011
0.00783305
0.960426
0.00906702
0.918299
0.00972326
0.87698
0.0102825
0.835491
0.0101495
0.798166
0.00972074
0.762202
0.00872095
0.728658
0.00711413
0.696476
0.00502127
0.665929
0.00240958
0.636909
-0.000737115
0.609193
-0.00442607
0.582526
-0.00861335
0.556766
-0.0132089
0.531785
-0.0181073
0.507557
-0.0232717
0.484076
-0.0286281
0.461145
-0.0340599
0.438702
-0.0393993
0.416742
-0.0443652
0.39529
-0.048874
0.374491
-0.0529577
0.354688
-0.0565302
0.335485
-0.0596183
0.31705
-0.0622822
0.2995
-0.0645703
0.282892
-0.0665459
0.267279
-0.068274
0.252488
-0.0697342
0.23856
-0.0709655
0.225444
-0.0722199
0.213181
-0.0737315
0.201732
-0.0753875
0.190857
-0.0770004
0.180368
-0.0786405
0.170293
-0.0801747
0.160379
-0.0816117
0.150472
-0.0821571
0.13957
-0.0799294
0.125612
-0.0722262
0.10602
-0.0539672
0.0751143
-0.0277142
0.0353602
-0.0111536
0.00914912
-0.00558914
-0.000819083
-0.00376788
-0.00428286
-0.00272031
-0.00548098
-0.00167261
-0.0053315
-0.000566678
-0.00346654
-0.000717456
0.00575321
0.895257
0.00717798
0.959001
0.00895481
0.916522
0.00961892
0.876316
0.0102827
0.834827
0.0104246
0.798024
0.0101422
0.762485
0.0093312
0.729469
0.00809374
0.697713
0.00621596
0.667807
0.00368407
0.639441
0.000551343
0.612326
-0.00316005
0.586238
-0.00742636
0.561032
-0.0121499
0.536509
-0.0171712
0.512578
-0.0223711
0.489276
-0.0276616
0.466436
-0.0329277
0.443969
-0.0381039
0.421918
-0.0431579
0.400344
-0.0478777
0.379211
-0.0522473
0.359057
-0.0562233
0.339461
-0.0597537
0.32058
-0.0628215
0.302568
-0.065442
0.285512
-0.0676515
0.269489
-0.0695222
0.254359
-0.0711982
0.240236
-0.0728467
0.227092
-0.0744395
0.214774
-0.0758327
0.203125
-0.0772367
0.192261
-0.0789504
0.182082
-0.0809106
0.172253
-0.0831615
0.16263
-0.0850073
0.152318
-0.0844952
0.139058
-0.0791577
0.120275
-0.0641397
0.0910018
-0.0372197
0.0481944
-0.016442
0.0145825
-0.00837478
0.00108188
-0.00560725
-0.00358662
-0.00427242
-0.00561769
-0.00326785
-0.00648555
-0.00225931
-0.00634004
-0.00100129
-0.00472455
-0.00171874
0.00588177
0.889376
0.00613225
0.95875
0.00732663
0.915328
0.00844193
0.875201
0.00987091
0.833398
0.0107361
0.797159
0.0116016
0.761619
0.0117972
0.729273
0.0113618
0.698149
0.0103556
0.668813
0.0085916
0.641205
0.00607464
0.614843
0.00278963
0.589523
-0.00121094
0.565033
-0.00594884
0.541246
-0.0113326
0.517962
-0.0172195
0.495163
-0.0235084
0.472725
-0.0300028
0.450463
-0.0364373
0.428352
-0.0426895
0.406596
-0.0486095
0.385131
-0.0539261
0.364374
-0.058628
0.344163
-0.0626728
0.324625
-0.0660796
0.305975
-0.0688811
0.288314
-0.0711516
0.271759
-0.0730074
0.256214
-0.0745283
0.241757
-0.0757368
0.228301
-0.0769378
0.215975
-0.0784291
0.204617
-0.0801185
0.19395
-0.0818512
0.183815
-0.0839068
0.174309
-0.0857008
0.164424
-0.086076
0.152693
-0.082993
0.135975
-0.0723799
0.109662
-0.0487063
0.0673282
-0.022906
0.0223941
-0.010379
0.0020555
-0.00471703
-0.00458013
-0.00206114
-0.00624251
-0.00118631
-0.00649252
-0.00121935
-0.00645251
-0.00131401
-0.00624539
-0.00086314
-0.00517542
-0.00258188
0.00280852
0.886567
0.00392899
0.95763
0.00503357
0.914223
0.00658441
0.87365
0.00789008
0.832092
0.00876794
0.796281
0.00960187
0.760785
0.0099996
0.728875
0.0100783
0.69807
0.00945655
0.669435
0.0081818
0.64248
0.00613542
0.616889
0.00324437
0.592414
-0.000430617
0.568708
-0.00484637
0.545662
-0.00991299
0.523028
-0.0154788
0.500729
-0.0214908
0.478737
-0.0277944
0.456767
-0.0342026
0.43476
-0.0405586
0.412952
-0.0466855
0.391258
-0.0524773
0.370166
-0.0577822
0.349468
-0.0624356
0.329278
-0.0663834
0.309923
-0.0696254
0.291556
-0.0722467
0.27438
-0.0743279
0.258296
-0.0759971
0.243426
-0.077461
0.229764
-0.078746
0.21726
-0.0798448
0.205715
-0.0810002
0.195106
-0.0825712
0.185386
-0.0839827
0.17572
-0.0847566
0.165198
-0.0838652
0.151802
-0.0775165
0.129626
-0.0596555
0.0918008
-0.0305078
0.0381805
-0.00997271
0.00185906
0.000889664
-0.00880687
0.0067073
-0.0103978
0.00883013
-0.00836535
0.00814874
-0.00581112
0.00572758
-0.00403135
0.0027956
-0.00331341
0.000683551
-0.00306337
-0.00189833
0.000717112
0.88585
0.00166373
0.956683
0.00185908
0.914028
0.00355891
0.87195
0.00586954
0.829781
0.0078762
0.794274
0.00988957
0.758772
0.0113543
0.727411
0.0123939
0.697031
0.012788
0.669041
0.0124991
0.642769
0.0113309
0.618057
0.00922478
0.59452
0.00603864
0.571894
0.00179821
0.549903
-0.00342241
0.528249
-0.00948335
0.50679
-0.0163072
0.485561
-0.0237541
0.464214
-0.0314806
0.442487
-0.0392109
0.420682
-0.0466695
0.398717
-0.0535615
0.377058
-0.0598931
0.3558
-0.0654019
0.334787
-0.0699342
0.314455
-0.0734824
0.295104
-0.0761962
0.277094
-0.0781876
0.260287
-0.0795831
0.244822
-0.0805461
0.230727
-0.081373
0.218087
-0.0824252
0.206768
-0.0836169
0.196297
-0.0849314
0.1867
-0.085805
0.176594
-0.0848949
0.164288
-0.0793944
0.146301
-0.0645596
0.114791
-0.0383561
0.0655974
-0.00733658
0.00716094
0.010211
-0.0156885
0.0195026
-0.0180985
0.0237206
-0.0146157
0.0241211
-0.00876585
0.0212466
-0.00293659
0.0160451
0.00117011
0.00983571
0.002896
0.00387546
0.00289687
0.00197713
-0.0046987
0.890549
-0.00296683
0.954951
-0.00217183
0.913233
-0.000409764
0.870188
0.00107176
0.8283
0.00293725
0.792409
0.00484045
0.756869
0.00666827
0.725583
0.00812869
0.69557
0.00907758
0.668092
0.00948848
0.642358
0.00902281
0.618523
0.00768708
0.595856
0.00536685
0.574214
0.0019622
0.553307
-0.00242413
0.532635
-0.00778998
0.512155
-0.0139177
0.491688
-0.0207375
0.471033
-0.0282056
0.449955
-0.0359546
0.428431
-0.0438542
0.406616
-0.0514729
0.384676
-0.058516
0.362843
-0.0648016
0.341073
-0.0701215
0.319775
-0.0744251
0.299408
-0.0777848
0.280454
-0.0801868
0.262689
-0.0818205
0.246455
-0.0829823
0.231889
-0.0835867
0.218691
-0.0838187
0.207
-0.0842217
0.1967
-0.0838694
0.186348
-0.0823043
0.175029
-0.07769
0.159673
-0.066185
0.134796
-0.0474634
0.0960695
-0.0104286
0.0285626
0.0160862
-0.0193539
0.0263083
-0.0259106
0.0312014
-0.0229917
0.0335598
-0.016974
0.0335113
-0.00871743
0.0303106
0.000264099
0.0242111
0.0072696
0.0162844
0.0108227
0.00722862
0.0119527
0.00920575
-0.00578233
0.896331
-0.00575129
0.95492
-0.00625591
0.913737
-0.00453766
0.86847
-0.00173716
0.825499
0.00124147
0.78943
0.00388635
0.754224
0.00667037
0.722799
0.00918659
0.693054
0.0113316
0.665947
0.0128287
0.640861
0.013482
0.61787
0.0131137
0.596224
0.0114308
0.575897
0.00840518
0.556333
0.00416679
0.536874
-0.00129558
0.517618
-0.00797492
0.498368
-0.0156603
0.478719
-0.0242086
0.458503
-0.033256
0.437479
-0.0424924
0.415853
-0.0515414
0.393725
-0.0599767
0.371278
-0.0675424
0.348638
-0.073873
0.326106
-0.0787395
0.304274
-0.082407
0.284121
-0.0846741
0.264956
-0.0857641
0.247545
-0.0863334
0.232459
-0.0867514
0.219109
-0.0868133
0.207062
-0.0859135
0.195801
-0.083323
0.183758
-0.0788142
0.17052
-0.0701409
0.151
-0.0561362