/*--------------------------------*- C++ -*----------------------------------*\
| =========                 |                                                 |
| \\      /  F ield         | OpenFOAM: The Open Source CFD Toolbox           |
|  \\    /   O peration     | Version:  v1912                                 |
|   \\  /    A nd           | Website:  www.openfoam.com                      |
|    \\/     M anipulation  |                                                 |
\*---------------------------------------------------------------------------*/
FoamFile
{
    version     2.0;
    format      ascii;
    class       volVectorField;
    location    "0.39";
    object      U;
}
// * * * * * * * * * * * * * * * * * * * * * * * * * * * * * * * * * * * * * //

dimensions      [0 1 -1 0 0 0 0];


internalField   nonuniform List<vector> 
6600
(
(39.8318 -0.0543822 0)
(40.0589 -0.0943373 3.8893e-20)
(40.0923 -0.0564313 2.70449e-18)
(40.1076 -0.0235741 0)
(40.1084 0.0169863 3.3951e-18)
(40.1025 0.0699829 1.17424e-19)
(40.1043 0.172426 -1.30238e-19)
(40.1155 0.287585 -1.44904e-19)
(40.1252 0.409498 2.91344e-18)
(40.1288 0.552223 -2.07151e-19)
(40.1425 0.705895 0)
(40.1447 0.871178 -3.61144e-18)
(40.1518 1.05224 0)
(40.149 1.2427 -4.19197e-18)
(40.1445 1.44114 -5.40866e-18)
(40.1249 1.65341 -2.865e-18)
(40.0843 1.88394 0)
(40.0201 2.13024 0)
(39.9382 2.38409 4.61995e-18)
(39.8517 2.64178 -4.52969e-18)
(39.7722 2.90985 -6.4435e-19)
(39.693 3.1862 -2.25044e-18)
(39.5916 3.48216 -4.23112e-18)
(39.4595 3.8136 9.59151e-19)
(39.3356 4.184 3.31485e-18)
(39.2226 4.6001 0)
(39.0236 5.05027 8.29948e-18)
(38.8204 5.52447 0)
(38.6149 6.02457 -4.32391e-18)
(38.3868 6.55771 -2.89043e-18)
(38.166 7.12583 -2.66239e-19)
(37.8669 7.75507 -3.64259e-18)
(37.5373 8.42751 -1.42445e-18)
(37.2958 9.15431 3.1007e-18)
(37.0617 9.93752 3.11674e-19)
(36.7927 10.7481 3.82595e-18)
(36.5145 11.6273 6.8938e-18)
(36.2324 12.6157 7.30442e-18)
(35.9334 13.7223 -5.44533e-18)
(35.6694 14.9181 5.96241e-18)
(35.4256 16.1787 3.2839e-18)
(35.1878 17.5349 0)
(34.9645 18.9781 -1.52492e-18)
(34.7816 20.5385 3.49874e-18)
(34.6291 22.1823 0)
(34.5589 24.0015 9.72479e-19)
(34.4524 25.8052 1.94484e-18)
(34.7352 27.9722 0)
(33.1935 29.1266 0)
(24.2651 23.0621 -2.63991e-19)
(39.7084 -0.0642274 2.2919e-18)
(40.099 -0.106912 -2.50058e-18)
(40.1195 -0.051507 0)
(40.1298 0.00184101 -4.75911e-20)
(40.1262 0.0645039 3.41888e-18)
(40.1246 0.148114 1.17293e-19)
(40.1558 0.261067 -7.11355e-25)
(40.1847 0.396064 -1.44832e-19)
(40.2097 0.545006 0)
(40.2224 0.707843 -5.56783e-18)
(40.2377 0.885853 -2.00061e-19)
(40.2575 1.08634 3.56866e-18)
(40.2622 1.28512 3.74196e-18)
(40.2549 1.49092 2.28792e-18)
(40.2448 1.69912 -3.21722e-21)
(40.2291 1.91049 3.53042e-19)
(40.2054 2.12773 -3.17076e-18)
(40.1865 2.36078 0)
(40.1452 2.61757 0)
(40.0918 2.89022 4.63041e-18)
(40.0149 3.20626 6.51826e-19)
(39.9241 3.54467 -3.61071e-18)
(39.8243 3.88647 -3.25665e-18)
(39.7201 4.24419 -3.67607e-18)
(39.5607 4.60226 -3.08453e-18)
(39.3844 4.95706 -1.18433e-18)
(39.2275 5.35102 -1.39822e-18)
(39.0618 5.80012 -1.51474e-18)
(38.8757 6.30193 4.40313e-18)
(38.6709 6.84042 2.36927e-19)
(38.4817 7.42726 -5.58901e-18)
(38.3312 8.06926 5.06703e-18)
(38.1466 8.75653 3.99827e-18)
(37.9377 9.52115 -4.69833e-18)
(37.7064 10.3467 3.27525e-19)
(37.4623 11.2278 -3.91305e-18)
(37.2622 12.1738 3.80886e-18)
(37.0638 13.1791 -2.54018e-18)
(36.8694 14.2414 -2.26657e-18)
(36.7025 15.3839 -2.55304e-18)
(36.5755 16.622 0)
(36.4687 17.9496 0)
(36.3981 19.352 -1.1572e-18)
(36.3942 20.8745 1.18014e-18)
(36.4455 22.4526 1.80821e-18)
(36.5708 24.1713 -1.00414e-18)
(36.6665 25.8968 -3.81573e-19)
(37.0598 27.9089 0)
(35.5323 28.6219 -1.85414e-18)
(25.3775 22.1143 4.81488e-19)
(39.5803 -0.0564843 -3.17221e-20)
(40.1664 -0.15004 2.5487e-18)
(40.177 -0.0536466 2.73625e-18)
(40.1812 0.00955984 -1.80171e-22)
(40.1851 0.0932972 -1.88567e-19)
(40.1981 0.217334 1.17103e-19)
(40.218 0.356675 0)
(40.2409 0.492474 0)
(40.2729 0.641773 0)
(40.2998 0.814103 3.05757e-18)
(40.3135 0.981296 -1.99541e-19)
(40.3382 1.16748 -3.5925e-18)
(40.3602 1.36495 -1.78043e-18)
(40.3722 1.57811 4.20429e-18)
(40.3782 1.79589 2.49918e-18)
(40.3785 2.03429 -3.54816e-19)
(40.3474 2.28081 6.74304e-18)
(40.3066 2.54068 -3.54128e-18)
(40.2463 2.81659 -3.98387e-18)
(40.1838 3.08938 0)
(40.1469 3.364 -2.52498e-18)
(40.0883 3.67286 2.91858e-18)
(40.0108 4.01258 3.29575e-18)
(39.9252 4.39076 3.72251e-18)
(39.8687 4.82395 3.16471e-18)
(39.7743 5.28291 -5.3692e-19)
(39.6188 5.77337 -6.5191e-19)
(39.4716 6.27407 -2.1324e-18)
(39.3267 6.80122 -8.25203e-19)
(39.166 7.3704 2.90091e-18)
(39.0099 7.98656 1.0362e-18)
(38.7733 8.63772 0)
(38.5657 9.33182 -5.12604e-18)
(38.4494 10.075 1.40642e-18)
(38.3418 10.8846 3.09963e-18)
(38.1996 11.7262 4.85772e-18)
(38.0673 12.6309 -2.11584e-18)
(37.9651 13.616 -1.97594e-18)
(37.8606 14.693 3.99877e-19)
(37.8031 15.8366 0)
(37.7908 17.0271 -1.77231e-18)
(37.8189 18.2988 0)
(37.8922 19.6388 0)
(38.0348 21.0799 -1.38544e-18)
(38.2462 22.5671 -7.0237e-19)
(38.5688 24.1853 -3.90574e-19)
(38.9083 25.8335 -2.2396e-19)
(39.4451 27.5875 0)
(37.785 27.8892 -1.53253e-18)
(26.1403 20.8133 1.59489e-18)
(39.4665 -0.0511665 -2.27607e-18)
(40.2349 -0.114034 1.92871e-20)
(40.2289 0.00901692 -2.81333e-18)
(40.2391 0.0759416 -2.95872e-18)
(40.2379 0.181474 -3.32193e-18)
(40.263 0.307296 -1.79227e-18)
(40.3102 0.448387 -1.2927e-19)
(40.3476 0.604834 0)
(40.3734 0.766706 2.54339e-18)
(40.4028 0.949926 3.01525e-18)
(40.435 1.14954 -1.98823e-19)
(40.4494 1.35565 -2.23328e-19)
(40.4722 1.55648 -1.75543e-18)
(40.4788 1.77146 -3.09575e-19)
(40.4845 1.99067 2.7608e-19)
(40.4931 2.2222 -3.52449e-19)
(40.4934 2.46058 3.38356e-19)
(40.4946 2.71692 4.01756e-18)
(40.4795 2.99195 5.49351e-18)
(40.4226 3.31074 0)
(40.3642 3.64833 6.72105e-20)
(40.3022 3.99295 0)
(40.2351 4.3548 0)
(40.153 4.73136 -9.0093e-19)
(40.0279 5.11089 2.97424e-18)
(39.9348 5.51578 2.87811e-18)
(39.84 5.95415 -6.3183e-19)
(39.7265 6.45264 2.91597e-18)
(39.6044 6.99 0)
(39.4797 7.56004 0)
(39.4005 8.18231 1.87094e-18)
(39.361 8.85036 0)
(39.2542 9.57085 1.31885e-18)
(39.1396 10.3467 2.5826e-18)
(39.0426 11.1687 -4.40202e-18)
(38.9586 12.0592 -4.67852e-18)
(38.9191 13.0072 4.57836e-18)
(38.9025 13.9887 -1.69473e-18)
(38.9139 15.0085 3.09427e-19)
(38.9616 16.1028 3.68153e-19)
(39.074 17.2687 3.01517e-18)
(39.2263 18.4861 0)
(39.4435 19.7471 0)
(39.7443 21.0989 4.51186e-19)
(40.1417 22.4823 -5.13088e-19)
(40.6188 23.956 -7.12477e-19)
(41.1135 25.5121 -1.88239e-18)
(41.5651 26.9788 2.07952e-18)
(39.5616 26.8119 3.67701e-18)
(26.4574 19.2016 0)
(39.3508 -0.0372929 -8.65742e-21)
(40.3052 -0.119785 2.43431e-18)
(40.2964 0.0353952 2.65145e-18)
(40.3186 0.118298 3.06885e-18)
(40.3438 0.249926 0)
(40.3653 0.398324 2.66595e-20)
(40.4011 0.554724 0)
(40.438 0.712694 -1.42614e-19)
(40.4819 0.872333 -4.91675e-18)
(40.5083 1.04277 -3.02897e-18)
(40.5375 1.2223 1.97381e-19)
(40.5671 1.41416 2.21591e-19)
(40.596 1.62424 -2.46608e-19)
(40.619 1.84146 -2.2304e-18)
(40.6301 2.07415 -5.26352e-18)
(40.641 2.31566 3.46347e-19)
(40.6329 2.58206 -6.22445e-18)
(40.6127 2.86448 4.38724e-19)
(40.5865 3.14705 -1.98002e-18)
(40.5679 3.42588 -1.10007e-18)
(40.5536 3.73563 3.11839e-18)
(40.5242 4.07169 0)
(40.4772 4.43785 0)
(40.4489 4.85626 -1.69898e-18)
(40.4324 5.31588 -1.99491e-18)
(40.3596 5.81269 2.65635e-18)
(40.2716 6.3357 -6.06853e-19)
(40.2074 6.8567 0)
(40.1377 7.41096 7.44309e-19)
(40.0612 8.015 -8.29201e-19)
(39.9635 8.64386 -1.90156e-18)
(39.8309 9.31176 -2.84003e-18)
(39.7576 10.0153 1.08832e-18)
(39.7637 10.772 -1.1269e-18)
(39.7829 11.5751 1.25398e-18)
(39.7858 12.3977 0)
(39.8208 13.2836 -1.46312e-18)
(39.9016 14.2399 -2.33287e-18)
(39.9977 15.2562 1.35047e-18)
(40.161 16.3082 1.39533e-18)
(40.3822 17.3908 -1.22671e-18)
(40.6617 18.5394 0)
(41.0046 19.7197 0)
(41.4334 20.9522 -5.55545e-19)
(41.9441 22.1959 1.14373e-18)
(42.5606 23.5367 2.32144e-19)
(43.1993 24.9805 1.38915e-18)
(43.6241 26.1281 -3.03371e-18)
(41.1003 25.5253 4.79924e-19)
(26.2905 17.3026 -5.74487e-18)
(39.2542 -0.0223674 2.19522e-18)
(40.4088 -0.0650753 -4.81111e-20)
(40.407 0.129249 -2.70258e-18)
(40.4432 0.215175 1.46814e-18)
(40.458 0.352751 0)
(40.5002 0.489001 1.89558e-18)
(40.5441 0.643267 -6.33432e-20)
(40.582 0.815215 -2.23265e-18)
(40.6257 0.999372 2.5309e-18)
(40.6807 1.19353 0)
(40.7097 1.39693 1.95656e-19)
(40.7408 1.59198 1.50706e-18)
(40.7697 1.80425 -2.17115e-18)
(40.7975 2.02121 2.72211e-19)
(40.8093 2.25714 2.77478e-18)
(40.8336 2.49406 -3.40832e-19)
(40.8592 2.74353 1.97953e-18)
(40.8899 3.01533 -4.27453e-19)
(40.8887 3.32784 4.80298e-19)
(40.8605 3.67532 1.56329e-18)
(40.8285 4.03608 2.04063e-18)
(40.8088 4.39861 -7.0209e-22)
(40.7811 4.78557 7.48356e-19)
(40.6948 5.1518 2.9185e-18)
(40.6445 5.54586 0)
(40.6269 5.96385 -2.13309e-18)
(40.5952 6.43776 5.68468e-19)
(40.5434 6.97459 -8.2142e-21)
(40.4992 7.53413 -7.15906e-20)
(40.4696 8.11591 7.65217e-19)
(40.5187 8.77203 -1.53607e-18)
(40.5697 9.4451 1.89279e-18)
(40.5607 10.1719 0)
(40.5685 10.9284 0)
(40.6043 11.729 0)
(40.6719 12.5929 0)
(40.7859 13.4905 -1.31359e-18)
(40.9467 14.4048 2.4065e-18)
(41.1581 15.3473 0)
(41.4156 16.3426 4.63601e-20)
(41.737 17.3734 -2.56697e-19)
(42.1079 18.4229 -5.40269e-19)
(42.5545 19.4923 2.78292e-19)
(43.0835 20.6051 0)
(43.7224 21.7184 8.76353e-19)
(44.4211 22.8886 -3.55419e-18)
(45.111 24.1907 2.45524e-18)
(45.2387 25.0156 2.34184e-18)
(41.9464 23.8859 8.95818e-18)
(25.4952 15.1164 -6.82484e-18)
(39.1717 -0.0140144 -2.19236e-18)
(40.5043 -0.0534256 -4.75793e-18)
(40.517 0.161767 4.12046e-20)
(40.5808 0.25451 -1.47298e-18)
(40.6018 0.426468 1.55282e-18)
(40.6384 0.586727 -5.61044e-20)
(40.6884 0.750477 2.03801e-18)
(40.7296 0.910964 2.24159e-18)
(40.7709 1.08013 2.52174e-18)
(40.8216 1.25446 -8.60276e-20)
(40.869 1.44354 -1.516e-18)
(40.9074 1.64553 -4.4004e-20)
(40.953 1.85601 1.93708e-18)
(40.9923 2.07701 0)
(41.0221 2.3189 0)
(41.0475 2.58136 1.66799e-19)
(41.0556 2.86493 2.78732e-18)
(41.0599 3.14723 0)
(41.0815 3.42522 2.31902e-19)
(41.1067 3.71885 -2.37238e-18)
(41.1152 4.0544 -2.07279e-18)
(41.1213 4.41531 9.19492e-19)
(41.1361 4.81146 0)
(41.1973 5.28721 -1.6353e-18)
(41.1911 5.77472 -4.3396e-19)
(41.1751 6.29604 4.84105e-19)
(41.1698 6.81312 0)
(41.1805 7.3339 0)
(41.1877 7.90266 -7.73399e-19)
(41.1897 8.51686 -5.65476e-19)
(41.1476 9.1328 2.26214e-18)
(41.1275 9.79374 -7.85036e-19)
(41.1941 10.4811 -7.60947e-19)
(41.3129 11.2252 1.61476e-18)
(41.4628 11.9828 -1.9108e-18)
(41.6134 12.7487 -2.07502e-19)
(41.8034 13.5695 8.64391e-19)
(42.0349 14.4402 -7.62086e-19)
(42.3018 15.3415 1.50464e-19)
(42.6445 16.2599 5.75871e-20)
(43.0435 17.1869 -3.2115e-19)
(43.5047 18.1515 2.96457e-19)
(44.0366 19.1175 1.07079e-18)
(44.6555 20.0985 -1.18951e-18)
(45.3323 21.0546 8.86693e-19)
(46.0923 22.088 0)
(46.7708 23.2243 1.76074e-18)
(46.7017 23.6878 3.17189e-18)
(42.4 22.082 -6.30928e-18)
(24.004 12.703 -2.0821e-18)
(39.1229 -0.00610005 2.11579e-18)
(40.6582 -0.0147267 2.34527e-18)
(40.6741 0.229279 2.03344e-20)
(40.7304 0.309716 -1.41974e-18)
(40.7591 0.494098 -3.18407e-18)
(40.8118 0.637715 1.80235e-18)
(40.8568 0.806068 -3.98338e-18)
(40.9083 0.989515 1.07756e-18)
(40.9744 1.17536 -2.45381e-18)
(41.0362 1.3733 -1.4162e-18)
(41.0944 1.57105 3.19178e-18)
(41.1464 1.78188 -1.90659e-18)
(41.2026 2.00272 -1.83338e-18)
(41.2529 2.23191 -8.84165e-24)
(41.2876 2.47472 -9.8981e-19)
(41.3388 2.72051 1.26162e-18)
(41.3979 2.98866 -1.46745e-18)
(41.4488 3.29302 0)
(41.472 3.64009 0)
(41.4874 3.99954 0)
(41.5055 4.3661 -2.71724e-19)
(41.517 4.75167 -9.47217e-19)
(41.5012 5.12205 -9.47878e-19)
(41.4816 5.50175 -3.69593e-19)
(41.5091 5.90225 0)
(41.5541 6.32774 0)
(41.5762 6.83143 8.92636e-19)
(41.5968 7.37591 -5.03993e-19)
(41.6348 7.93129 -8.68324e-20)
(41.7223 8.51942 1.04994e-19)
(41.8749 9.16518 4.50868e-20)
(42.0193 9.81828 -4.47753e-19)
(42.1071 10.5217 2.94335e-19)
(42.2273 11.2306 -8.32986e-19)
(42.3763 11.9855 6.93753e-19)
(42.5788 12.785 4.3564e-19)
(42.8252 13.5872 1.64249e-19)
(43.1256 14.3893 -1.03743e-19)
(43.4791 15.2039 -2.16103e-19)
(43.8831 16.047 1.6702e-19)
(44.344 16.8989 -3.07035e-19)
(44.8488 17.7388 1.02202e-18)
(45.4217 18.5785 -1.13679e-18)
(46.0627 19.4234 0)
(46.8178 20.2552 0)
(47.6288 21.183 0)
(48.1523 21.9829 0)
(47.5414 22.1834 0)
(41.8824 19.9617 -3.89492e-18)
(21.6787 10.1156 6.38894e-18)
(39.0903 0.0134441 -2.10241e-18)
(40.8011 -0.00179888 0)
(40.8366 0.263502 0)
(40.8997 0.328504 1.44524e-18)
(40.9183 0.546783 1.55553e-18)
(40.9731 0.690135 -1.80617e-18)
(41.0264 0.857305 2.00566e-18)
(41.0736 1.02049 -1.081e-18)
(41.1317 1.19494 1.16909e-18)
(41.2085 1.37058 1.41894e-18)
(41.2697 1.56886 -1.48722e-18)
(41.3339 1.77519 1.49817e-18)
(41.4044 1.99515 2.72923e-18)
(41.4848 2.23074 0)
(41.5439 2.48723 1.14004e-18)
(41.5875 2.77135 -1.42263e-18)
(41.6326 3.05612 1.04768e-21)
(41.6758 3.33773 -1.47508e-18)
(41.742 3.61948 1.83836e-18)
(41.806 3.9351 0)
(41.8635 4.28423 0)
(41.9285 4.66526 1.07512e-18)
(42.0433 5.11303 1.18261e-19)
(42.1211 5.60734 -1.26763e-18)
(42.1669 6.11466 -3.5735e-19)
(42.2236 6.63868 1.12857e-18)
(42.3058 7.13656 -1.67475e-18)
(42.3869 7.65318 1.24188e-18)
(42.4725 8.21708 -7.05254e-19)
(42.5232 8.80143 4.79764e-19)
(42.5723 9.39835 -2.56016e-19)
(42.657 10.0316 8.94313e-19)
(42.838 10.6748 -1.13773e-19)
(43.057 11.3651 5.11564e-19)
(43.3125 12.0373 0)
(43.5723 12.7188 4.66706e-20)
(43.8772 13.4406 1.29132e-19)
(44.212 14.187 1.75666e-19)
(44.5916 14.9447 5.74643e-19)
(45.0354 15.6998 -4.33817e-19)
(45.5271 16.4418 -2.84352e-19)
(46.0747 17.1952 -1.37473e-18)
(46.691 17.9254 3.42629e-18)
(47.3925 18.6455 4.39408e-19)
(48.1225 19.3284 5.27178e-19)
(48.9219 20.1551 -1.58815e-18)
(49.1773 20.6216 0)
(48.0363 20.542 3.47844e-18)
(40.8022 17.7473 -1.80335e-18)
(18.5048 7.47209 0)
(39.0922 0.0249856 7.79252e-21)
(40.9739 0.00477151 -5.86969e-23)
(41.0019 0.303487 -1.24112e-18)
(41.0794 0.353845 0)
(41.1074 0.567577 -2.38302e-20)
(41.17 0.70039 -8.07488e-19)
(41.2318 0.875649 0)
(41.3027 1.05455 1.02478e-18)
(41.381 1.24083 -1.24457e-18)
(41.4661 1.43465 8.02412e-20)
(41.5529 1.63551 1.39529e-18)
(41.6231 1.85372 -7.34643e-19)
(41.6998 2.08186 -1.00078e-18)
(41.7772 2.31985 0)
(41.8642 2.56729 0)
(41.9539 2.82901 0)
(42.0508 3.1224 -1.10458e-18)
(42.1347 3.46455 1.48132e-18)
(42.1917 3.82777 -2.5952e-18)
(42.2591 4.18553 2.13922e-19)
(42.3212 4.56335 -4.72431e-19)
(42.3542 4.9356 -8.2121e-19)
(42.3938 5.30116 2.23197e-18)
(42.4675 5.67187 1.84036e-18)
(42.5478 6.07142 0)
(42.6531 6.51471 -9.00613e-19)
(42.7427 7.03329 1.61236e-18)
(42.8383 7.56548 -9.95016e-19)
(42.9553 8.10403 3.74401e-19)
(43.1587 8.68087 -1.98049e-19)
(43.3867 9.2875 1.61738e-19)
(43.5991 9.90164 -4.27181e-19)
(43.7741 10.547 4.7293e-19)
(43.9806 11.1862 -1.99927e-19)
(44.2197 11.874 9.39879e-21)
(44.5264 12.5792 -1.1486e-19)
(44.8543 13.2654 3.65781e-19)
(45.2303 13.9372 -3.99111e-19)
(45.6523 14.5991 3.16296e-20)
(46.129 15.2721 0)
(46.6473 15.9361 9.77305e-19)
(47.1995 16.5665 8.45731e-19)
(47.8059 17.1798 1.79314e-19)
(48.4543 17.7644 -2.71021e-18)
(49.2242 18.352 -1.79951e-19)
(49.9151 18.9768 -2.02643e-18)
(49.9231 19.1855 0)
(47.7206 18.73 3.68782e-18)
(38.3665 15.2029 -6.19569e-18)
(14.3311 4.77921 0)
(39.1005 0.0339116 0)
(41.1485 0.00171365 0)
(41.2007 0.303868 6.53569e-19)
(41.2656 0.34441 -4.19653e-20)
(41.2918 0.577659 7.55385e-19)
(41.3579 0.691871 8.3568e-19)
(41.4127 0.863551 0)
(41.4807 1.03023 -1.02713e-18)
(41.5629 1.19667 1.09881e-18)
(41.648 1.38398 0)
(41.7395 1.57653 -2.07105e-18)
(41.8319 1.78783 -3.30122e-20)
(41.9333 2.00974 -1.04333e-19)
(42.0407 2.25197 1.16325e-19)
(42.1336 2.5144 0)
(42.2137 2.80239 0)
(42.3037 3.07933 7.53591e-19)
(42.4056 3.35741 5.6268e-19)
(42.5083 3.65814 6.07791e-20)
(42.6141 3.98794 9.83905e-20)
(42.7543 4.35285 -2.15998e-19)
(42.9013 4.77264 1.18532e-19)
(43.048 5.23226 -1.05902e-18)
(43.1714 5.72448 -4.3837e-19)
(43.2821 6.22842 3.63194e-19)
(43.4096 6.72938 5.1646e-19)
(43.5618 7.20235 -5.14147e-19)
(43.7081 7.70688 -4.05966e-19)
(43.8651 8.25219 0)
(43.972 8.80091 0)
(44.094 9.36157 0)
(44.2724 9.93747 2.48756e-19)
(44.5358 10.5253 1.42207e-20)
(44.8256 11.1417 6.37645e-20)
(45.1386 11.7167 1.51053e-19)
(45.4571 12.3046 2.62921e-19)
(45.8255 12.9126 -4.34094e-20)
(46.2093 13.5286 5.14322e-19)
(46.6378 14.1448 -3.26895e-19)
(47.1063 14.7365 -5.56393e-19)
(47.6126 15.296 -7.50826e-19)
(48.1614 15.8487 8.37182e-19)
(48.7712 16.3604 0)
(49.4738 16.8564 1.61334e-18)
(50.2332 17.3902 -8.99296e-19)
(50.5609 17.6854 1.16778e-18)
(50.1136 17.663 0)
(46.7315 16.7187 -1.83343e-18)
(35.1476 12.5091 1.09283e-18)
(9.22941 2.10881 0)
(39.1148 0.0386398 4.63911e-19)
(41.3314 -0.00799895 0)
(41.3817 0.294618 1.17986e-18)
(41.468 0.316522 -6.40245e-19)
(41.5016 0.5532 -7.33212e-19)
(41.5839 0.659322 2.48559e-20)
(41.6624 0.842607 -2.76629e-20)
(41.7456 1.00833 0)
(41.8436 1.18927 -1.06734e-18)
(41.9583 1.37612 5.46715e-19)
(42.0681 1.58325 6.73374e-19)
(42.1703 1.79911 -7.88906e-19)
(42.27 2.02604 3.89967e-19)
(42.3864 2.26739 1.09832e-19)
(42.5244 2.51037 -6.0776e-20)
(42.6549 2.78541 0)
(42.7914 3.10158 6.67392e-19)
(42.9089 3.45249 -7.28876e-19)
(43.0077 3.80855 1.45319e-19)
(43.0986 4.17089 -3.65641e-21)
(43.1987 4.52144 -9.92102e-20)
(43.2903 4.88231 0)
(43.4094 5.24151 -1.04449e-19)
(43.538 5.60771 -2.93987e-19)
(43.6807 6.01026 -5.0824e-19)
(43.8317 6.46335 -5.19248e-19)
(43.9875 6.96817 0)
(44.1508 7.4724 2.53172e-19)
(44.3444 7.9845 2.22522e-19)
(44.6254 8.52846 -1.19055e-19)
(44.9146 9.08262 6.32737e-20)
(45.1792 9.65136 -2.91039e-20)
(45.4121 10.2229 1.2666e-19)
(45.6673 10.7875 -4.28157e-20)
(45.9684 11.3951 -1.52362e-19)
(46.3286 12.0017 -6.51045e-20)
(46.6826 12.5795 -1.95741e-19)
(47.0768 13.1307 0)
(47.5051 13.6509 -5.05823e-19)
(47.9828 14.1691 1.1156e-18)
(48.484 14.6687 7.61039e-19)
(49.0137 15.1189 -9.57664e-19)
(49.5894 15.5456 1.38218e-18)
(50.1804 15.9412 -6.92073e-19)
(50.7958 16.3052 1.8862e-18)
(50.9 16.3892 2.45017e-20)
(49.817 16.0929 0)
(44.6294 14.4637 3.78417e-18)
(30.3643 9.36864 -3.24299e-18)
(5.5188 0.344337 -1.19852e-18)
(39.1214 0.0362792 -4.69825e-19)
(41.511 -0.0381128 5.01387e-19)
(41.5725 0.263543 -5.76416e-19)
(41.642 0.271624 6.31078e-19)
(41.6717 0.496202 3.42959e-19)
(41.7581 0.588573 2.40973e-20)
(41.8286 0.764759 -1.33625e-20)
(41.9215 0.913777 0)
(42.0238 1.0804 4.76177e-19)
(42.1361 1.25837 -8.28919e-19)
(42.2645 1.44465 0)
(42.4 1.64553 4.28725e-20)
(42.5373 1.87075 -1.16105e-19)
(42.6679 2.11078 -3.49807e-19)
(42.7978 2.38198 4.93011e-19)
(42.9302 2.65155 -1.74189e-21)
(43.0603 2.91588 -6.75017e-20)
(43.2116 3.19203 0)
(43.3705 3.50628 3.54768e-19)
(43.5326 3.85717 -3.47004e-19)
(43.7273 4.23659 4.42806e-20)
(43.9219 4.65511 0)
(44.1142 5.11216 0)
(44.2972 5.59394 2.45143e-19)
(44.4634 6.07291 -4.24588e-20)
(44.6506 6.53681 2.35452e-19)
(44.8498 6.98926 -7.91908e-20)
(45.0527 7.47412 3.89471e-20)
(45.2576 7.9847 -1.26459e-19)
(45.4141 8.48638 -1.82318e-20)
(45.5808 9.00062 -5.83557e-20)
(45.8177 9.5187 -1.40093e-19)
(46.1263 10.0587 1.34344e-19)
(46.4544 10.6026 -1.30205e-19)
(46.7847 11.1028 -1.83528e-19)
(47.1228 11.6069 -1.90368e-19)
(47.5033 12.1095 0)
(47.8838 12.6083 6.75226e-19)
(48.3049 13.1072 -2.52999e-19)
(48.7435 13.5674 -6.57945e-19)
(49.2062 13.9737 8.3403e-19)
(49.6905 14.3646 -4.63709e-20)
(50.214 14.706 -7.28189e-19)
(50.9165 15.0942 -2.07914e-20)
(51.192 15.2457 -9.86652e-19)
(50.874 15.1546 -2.60453e-18)
(48.5608 14.4173 1.48389e-18)
(41.2627 11.9949 0)
(24.7074 6.16004 -2.13746e-18)
(3.00099 -0.29179 4.10882e-18)
(39.1038 0.0372822 -8.73146e-22)
(41.6605 -0.0700863 -5.04716e-19)
(41.7476 0.21697 1.31006e-19)
(41.8313 0.196965 4.76962e-21)
(41.8824 0.427267 -3.43131e-19)
(41.9871 0.496644 0)
(42.0751 0.674194 0)
(42.1931 0.821674 1.40557e-20)
(42.3204 0.981905 -7.68302e-19)
(42.4585 1.16621 2.80092e-19)
(42.6061 1.35936 -1.8583e-20)
(42.7421 1.56829 4.10182e-20)
(42.8896 1.79299 -2.39764e-19)
(43.0571 2.02718 2.38517e-19)
(43.234 2.27117 -6.41824e-19)
(43.4151 2.56282 1.09613e-19)
(43.5901 2.89312 -1.17014e-19)
(43.7422 3.22896 -3.16423e-20)
(43.8688 3.57251 3.60246e-19)
(44.0016 3.91018 2.36015e-19)
(44.1452 4.25654 3.13363e-21)
(44.2939 4.59465 3.98116e-20)
(44.4558 4.9349 0)
(44.644 5.30066 1.50436e-19)
(44.829 5.70351 3.57213e-21)
(45.0267 6.14869 -7.08689e-20)
(45.2338 6.61891 -1.43648e-20)
(45.4531 7.08528 -5.61382e-21)
(45.7079 7.57431 0)
(46.0307 8.07914 1.27569e-20)
(46.3687 8.58681 8.55301e-20)
(46.6689 9.11073 1.01575e-19)
(46.9292 9.61024 -4.76161e-20)
(47.1962 10.1097 2.16851e-19)
(47.5188 10.6402 -2.14029e-19)
(47.8817 11.1702 -1.55323e-19)
(48.2211 11.6678 0)
(48.593 12.139 -4.50919e-19)
(48.9812 12.5544 -3.27771e-19)
(49.397 12.9554 3.66124e-19)
(49.8202 13.3418 -4.6424e-19)
(50.2699 13.6669 5.77961e-19)
(50.8386 14.0219 0)
(51.1576 14.2232 4.22647e-19)
(51.1301 14.2254 0)
(50.1523 13.9235 6.59719e-19)
(46.3889 12.774 -1.50779e-18)
(36.3158 9.64128 8.60882e-19)
(16.2018 3.10664 0)
(0.863863 -0.255313 2.59282e-19)
(39.0579 0.00811731 -1.05177e-22)
(41.7888 -0.116516 -1.16386e-22)
(41.8993 0.152553 -1.35073e-19)
(41.9524 0.115854 -5.71543e-22)
(42.0125 0.329599 -4.34689e-21)
(42.118 0.368876 -6.95868e-22)
(42.2117 0.530111 7.74579e-22)
(42.3341 0.642955 -1.68443e-21)
(42.4641 0.791475 2.45696e-19)
(42.6161 0.951674 3.99284e-21)
(42.7838 1.12113 2.20615e-21)
(42.9662 1.31548 -4.85874e-21)
(43.1365 1.52813 -1.71514e-19)
(43.3048 1.77123 1.88933e-19)
(43.486 2.02585 2.1305e-19)
(43.6657 2.27088 -1.09834e-19)
(43.8589 2.53525 1.13514e-19)
(44.0813 2.82436 3.50466e-21)
(44.291 3.1527 3.62588e-21)
(44.4848 3.50813 0)
(44.7126 3.88164 3.68901e-21)
(44.9705 4.30231 1.83272e-21)
(45.2044 4.75791 -2.04681e-21)
(45.4242 5.19485 0)
(45.64 5.64191 0)
(45.859 6.08179 -4.71978e-20)
(46.0941 6.51962 0)
(46.3408 6.988 5.62127e-21)
(46.5761 7.45366 0)
(46.7615 7.91434 1.60854e-21)
(46.9518 8.39058 -5.77883e-20)
(47.2152 8.86323 5.52041e-21)
(47.5367 9.36466 -1.34468e-19)
(47.8814 9.85899 1.44843e-20)
(48.2093 10.3171 1.00379e-19)
(48.5417 10.7585 1.75261e-19)
(48.894 11.1875 -7.11294e-21)
(49.2275 11.5962 0)
(49.5933 12.0209 -5.49612e-21)
(49.9632 12.4036 6.73593e-21)
(50.3435 12.7125 0)
(50.7543 13.0361 -9.64592e-21)
(51.1628 13.3283 -4.50778e-20)
(51.2632 13.3831 -3.70229e-19)
(50.9376 13.3661 -8.33317e-21)
(48.8544 12.8107 0)
(42.6505 11.0991 0)
(28.9254 7.13221 1.18069e-19)
(7.89083 1.0669 -1.1684e-19)
(-0.557084 -0.0397904 2.66657e-19)
(38.9702 -0.00416772 -2.0533e-19)
(41.8717 -0.158157 -2.25991e-19)
(42.0269 0.0627653 -1.23953e-19)
(42.1021 2.01039e-05 -1.41212e-19)
(42.1878 0.194409 -1.43882e-19)
(42.303 0.216057 1.63874e-19)
(42.4208 0.373228 0)
(42.5769 0.46723 0)
(42.7318 0.618224 -1.11904e-19)
(42.9112 0.773719 -3.99235e-21)
(43.0954 0.951413 1.24472e-19)
(43.2812 1.1421 9.34645e-21)
(43.4865 1.35537 1.45481e-19)
(43.699 1.57511 -1.55631e-19)
(43.9229 1.83517 -1.83417e-19)
(44.1489 2.12773 0)
(44.3461 2.44101 0)
(44.5364 2.75932 -3.50409e-21)
(44.7196 3.08356 -3.62435e-21)
(44.9023 3.42499 1.02992e-19)
(45.0809 3.76437 -3.68801e-21)
(45.2698 4.0752 0)
(45.4837 4.40701 0)
(45.7059 4.78797 7.86423e-21)
(45.9358 5.16993 1.45235e-20)
(46.1647 5.58762 -5.87883e-21)
(46.4094 6.01762 0)
(46.6662 6.45248 -2.70918e-20)
(46.9586 6.91567 0)
(47.3106 7.38664 -1.6081e-21)
(47.6788 7.86107 0)
(47.9988 8.35258 0)
(48.2736 8.80877 4.83169e-20)
(48.534 9.26872 6.80428e-20)
(48.8564 9.75337 0)
(49.1904 10.2458 0)
(49.4876 10.7076 7.10924e-21)
(49.8168 11.1557 0)
(50.143 11.5194 5.49265e-21)
(50.4649 11.8589 -2.34922e-19)
(50.7909 12.2121 2.75822e-19)
(51.202 12.5592 2.98489e-20)
(51.3617 12.6858 2.23844e-20)
(51.2139 12.7751 -4.4019e-19)
(49.9997 12.5413 -2.69897e-19)
(46.0637 11.559 1.5432e-18)
(36.7992 9.04499 -7.01066e-19)
(19.2556 4.07634 -8.20803e-19)
(3.3285 0.304763 6.75414e-19)
(-1.18992 0.0486471 0)
(38.836 -0.0676085 2.04431e-19)
(41.9148 -0.224273 -2.0824e-19)
(42.0917 -0.0257531 1.22022e-19)
(42.1421 -0.0985993 -1.29565e-19)
(42.2443 0.0521309 1.5365e-19)
(42.3533 0.0331837 -1.69195e-19)
(42.4845 0.161262 -1.13305e-20)
(42.651 0.225354 1.26155e-20)
(42.8224 0.352182 9.82941e-20)
(43.0191 0.477884 1.50825e-20)
(43.2318 0.625886 -1.32762e-19)
(43.453 0.798057 -2.74127e-19)
(43.6673 0.994198 1.39237e-19)
(43.8876 1.219 1.46742e-19)
(44.1169 1.44334 5.31848e-19)
(44.3645 1.68452 -2.17765e-20)
(44.6252 1.95295 2.43074e-20)
(44.892 2.24937 -1.84571e-19)
(45.1463 2.57833 -2.28423e-20)
(45.3755 2.91974 -7.73517e-20)
(45.6394 3.30341 0)
(45.9438 3.73223 0)
(46.2154 4.15903 0)
(46.4651 4.56708 0)
(46.7135 5.00122 -1.86819e-20)
(46.9611 5.42456 -3.62452e-20)
(47.2263 5.84933 0)
(47.5037 6.28526 1.08262e-19)
(47.7559 6.71802 0)
(47.9658 7.15292 0)
(48.1759 7.59897 -2.53265e-19)
(48.4514 8.04054 1.72004e-19)
(48.7702 8.51387 -4.16542e-19)
(49.1231 8.98512 1.25591e-19)
(49.4377 9.43015 0)
(49.7519 9.85299 0)
(50.0681 10.2594 2.75242e-19)
(50.3427 10.6286 -9.73539e-19)
(50.6266 11.0345 0)
(50.914 11.4122 -7.36377e-19)
(51.2742 11.7639 1.08519e-18)
(51.4644 12.0114 -1.28193e-18)
(51.3878 12.1517 7.5843e-19)
(50.6923 12.1117 -9.31128e-19)
(48.255 11.6225 2.38111e-18)
(41.9082 10.0397 -2.11602e-18)
(28.6493 6.59871 1.39473e-18)
(8.73316 1.43532 -3.11086e-18)
(0.176029 0.143694 3.71376e-18)
(-1.45797 0.0106444 -2.38304e-18)
(38.6137 -0.0893758 3.8146e-19)
(41.9127 -0.271359 1.36615e-20)
(42.1537 -0.152336 0)
(42.2164 -0.238802 2.68254e-19)
(42.3408 -0.123758 5.9301e-19)
(42.4613 -0.150519 -2.01657e-20)
(42.6307 -0.0430032 0)
(42.8181 0.00724441 0)
(43.0189 0.121592 2.60267e-20)
(43.2459 0.239477 -2.89933e-20)
(43.4812 0.386163 4.87569e-19)
(43.7261 0.556152 -2.50971e-19)
(43.9861 0.739188 -2.93954e-19)
(44.2456 0.954735 2.9814e-19)
(44.5135 1.20909 -3.32037e-19)
(44.7708 1.48214 -4.036e-20)
(45.0094 1.77549 3.80779e-19)
(45.2487 2.07538 5.22913e-19)
(45.4836 2.39132 0)
(45.7125 2.72961 -1.58822e-19)
(45.9104 3.0534 -1.43591e-19)
(46.1442 3.35553 0)
(46.4035 3.70184 8.23501e-20)
(46.6617 4.07192 0)
(46.9195 4.43492 0)
(47.1745 4.82951 3.61439e-20)
(47.4441 5.2351 5.83679e-20)
(47.7327 5.65387 2.04745e-19)
(48.052 6.0866 0)
(48.4147 6.52553 0)
(48.8013 6.98275 1.02518e-19)
(49.1405 7.45902 1.67443e-19)
(49.4325 7.90624 7.47509e-19)
(49.7021 8.35767 3.64522e-20)
(50.0327 8.83568 4.03832e-20)
(50.3411 9.32655 -9.29173e-19)
(50.594 9.79848 -4.79181e-20)
(50.8738 10.2743 1.32315e-18)
(51.1445 10.6479 8.49163e-19)
(51.4226 11.0131 4.7221e-19)
(51.6352 11.4107 1.16256e-18)
(51.6525 11.5923 6.34276e-20)
(51.2629 11.6929 -1.54913e-18)
(49.66 11.4896 -9.25342e-19)
(45.0954 10.4774 -2.6558e-18)
(34.7238 7.9597 3.01094e-18)
(16.5466 3.33072 -1.34804e-18)
(2.98891 0.521187 0)
(-1.36151 0.195721 0)
(-1.34634 0.0897884 4.71942e-19)
(38.3655 -0.144618 -1.11797e-18)
(41.8755 -0.324672 -4.03152e-19)
(42.0987 -0.224679 4.57609e-19)
(42.17 -0.356245 -1.59425e-20)
(42.2913 -0.287913 -1.13269e-18)
(42.4176 -0.341921 1.95451e-20)
(42.6084 -0.280688 0)
(42.8067 -0.264404 7.37474e-19)
(43.0247 -0.184548 2.51167e-20)
(43.2672 -0.108425 -7.7722e-22)
(43.5281 0.000552201 -9.8776e-19)
(43.7968 0.136792 4.92294e-19)
(44.074 0.305736 1.60484e-21)
(44.356 0.491016 -2.60251e-19)
(44.6518 0.69814 0)
(44.9694 0.931157 0)
(45.2846 1.19958 -2.96466e-19)
(45.5937 1.49962 -3.8065e-19)
(45.8932 1.82025 0)
(46.1757 2.16599 1.58323e-19)
(46.4768 2.56039 1.43112e-19)
(46.7856 2.97758 2.04695e-20)
(47.0825 3.37667 -4.8444e-20)
(47.3559 3.78889 -5.33644e-21)
(47.6326 4.21083 6.58326e-21)
(47.9033 4.6126 5.30125e-20)
(48.1876 5.01334 -1.87245e-19)
(48.4817 5.41707 -2.06145e-19)
(48.7553 5.8297 3.48826e-19)
(48.9965 6.24349 -4.82116e-19)
(49.2332 6.65964 0)
(49.5174 7.07975 0)
(49.8476 7.53141 6.0982e-20)
(50.2187 8.00729 -6.18621e-19)
(50.5352 8.47789 8.49761e-19)
(50.8475 8.93002 1.56664e-18)
(51.1533 9.36733 -5.8497e-19)
(51.4063 9.76329 -1.51456e-18)
(51.6421 10.2138 -1.73941e-18)
(51.8511 10.6781 -1.04073e-18)
(51.9804 10.9597 -5.29965e-20)
(51.7435 11.1938 1.34848e-18)
(50.5893 11.2049 0)
(47.1953 10.5899 9.15522e-19)
(39.091 8.77046 1.04894e-18)
(24.1337 5.09542 1.18788e-18)
(6.63079 1.09388 4.00929e-18)
(-0.255274 0.278055 -1.49091e-18)
(-1.92343 0.14562 0)
(-1.10202 0.098258 0)
(38.0625 -0.132165 1.77832e-20)
(41.7723 -0.349933 8.2201e-19)
(42.0544 -0.33353 -4.70535e-19)
(42.1445 -0.480684 9.86557e-19)
(42.2886 -0.449911 5.92199e-19)
(42.4388 -0.523395 -2.38556e-22)
(42.651 -0.492906 -2.09174e-20)
(42.8774 -0.490317 -6.91076e-19)
(43.1279 -0.436246 -4.99812e-20)
(43.3988 -0.372252 -5.27284e-20)
(43.689 -0.271477 4.71672e-19)
(43.9931 -0.149395 6.3203e-20)
(44.3066 0.00421698 5.22561e-19)
(44.6272 0.198529 5.5138e-19)
(44.937 0.422439 -7.01528e-20)
(45.2462 0.67051 7.82524e-20)
(45.552 0.940996 0)
(45.84 1.23365 2.98831e-19)
(46.123 1.54314 0)
(46.3839 1.8665 0)
(46.6255 2.18197 0)
(46.8932 2.50011 3.18926e-20)
(47.1895 2.85456 -9.18344e-20)
(47.4656 3.20833 -5.51514e-22)
(47.7421 3.57549 0)
(48.013 3.96704 -6.27953e-20)
(48.3023 4.35544 -2.79743e-19)
(48.6166 4.74748 -5.29823e-19)
(48.9487 5.14777 -5.51028e-19)
(49.3241 5.5598 4.63776e-19)
(49.7342 6.00474 -6.73813e-19)
(50.1128 6.46565 4.07515e-19)
(50.4416 6.91618 1.16159e-18)
(50.7407 7.36153 0)
(51.101 7.83747 9.77206e-19)
(51.4247 8.3553 -2.15282e-18)
(51.6833 8.88838 -9.8996e-20)
(51.9443 9.44464 1.49816e-18)
(52.1817 9.90894 8.87554e-19)
(52.3712 10.3153 0)
(52.2384 10.7062 1.28092e-18)
(51.3685 10.8157 -1.42569e-18)
(48.819 10.5336 3.28233e-18)
(42.5004 9.30656 0)
(29.9194 6.38306 -4.21507e-18)
(10.3806 1.9023 1.1677e-18)
(1.39592 0.458977 -1.3194e-18)
(-1.69068 0.140355 -1.47671e-18)
(-1.8689 0.0998318 3.29594e-18)
(-0.718885 0.0356702 3.96496e-22)
(37.7381 -0.191394 7.19868e-19)
(41.6444 -0.399536 -7.87972e-19)
(41.8981 -0.38717 8.74296e-19)
(41.995 -0.559145 -1.95218e-18)
(42.1311 -0.576715 1.10362e-18)
(42.2951 -0.69098 -7.40478e-20)
(42.5104 -0.70643 6.87543e-19)
(42.7511 -0.753894 0)
(43.0131 -0.751698 7.69329e-19)
(43.3029 -0.734876 -8.84916e-19)
(43.6188 -0.686093 2.04372e-21)
(43.946 -0.605032 6.16574e-20)
(44.2894 -0.493841 -5.20813e-19)
(44.6491 -0.348303 -1.05492e-20)
(45.0232 -0.166649 -4.93904e-19)