/*--------------------------------*- C++ -*----------------------------------*\
| =========                 |                                                 |
| \\      /  F ield         | OpenFOAM: The Open Source CFD Toolbox           |
|  \\    /   O peration     | Version:  v1912                                 |
|   \\  /    A nd           | Website:  www.openfoam.com                      |
|    \\/     M anipulation  |                                                 |
\*---------------------------------------------------------------------------*/
FoamFile
{
    version     2.0;
    format      ascii;
    class       volScalarField;
    location    "0.47";
    object      p;
}
// * * * * * * * * * * * * * * * * * * * * * * * * * * * * * * * * * * * * * //

dimensions      [0 2 -2 0 0 0 0];


internalField   nonuniform List<scalar> 
6600
(
152.137
147.386
144.86
143.291
142.22
141.436
140.636
139.797
138.911
137.979
136.946
135.78
134.527
133.258
131.941
130.482
129.049
127.516
125.842
123.923
121.638
118.78
115.866
112.715
109.064
104.958
100.45
95.4587
89.5364
82.4093
73.9247
63.8955
52.1686
38.7481
23.0194
4.43677
-17.5065
-43.3341
-73.5802
-108.947
-150.155
-198.08
-253.414
-317.294
-390.744
-475.104
-570.028
-675.701
-799.834
-938.44
148.897
143.838
142.008
140.247
138.699
137.402
136.159
134.941
133.704
132.433
131.076
129.589
128.011
126.289
124.465
122.474
120.261
117.919
115.311
112.447
109.51
105.952
101.78
97.2222
92.1413
86.3904
79.8225
72.6415
64.6316
55.2852
44.235
31.3799
16.5555
-0.63712
-20.527
-43.5192
-70.2053
-101.309
-137.214
-178.698
-226.447
-281.377
-344.461
-416.685
-499.251
-593.396
-698.492
-814.099
-946.079
-1092.84
144.408
139.09
137.9
135.92
134.084
132.435
130.843
129.268
127.629
125.92
124.118
122.231
120.24
118.041
115.678
113.184
110.353
107.214
103.756
99.7941
95.3905
90.7658
85.4119
79.3881
72.7274
65.3817
57.1064
47.4526
36.6712
24.5569
10.6698
-5.46786
-23.8687
-45.0364
-69.1805
-96.7426
-128.465
-165.133
-207.051
-255.047
-309.734
-372.03
-442.966
-523.529
-614.497
-717.4
-831.815
-956.348
-1092.17
-1238.59
139.146
133.549
132.745
130.291
128.281
126.396
124.505
122.607
120.598
118.452
116.151
113.74
111.158
108.421
105.44
102.154
98.5364
94.4434
89.9799
85.175
79.598
73.5096
66.7863
59.2486
50.7725
41.3409
30.9991
19.1833
5.67253
-9.64246
-26.8754
-46.4339
-68.5934
-93.6884
-122.454
-155.137
-192.357
-234.584
-282.531
-336.865
-398.499
-468.178
-546.748
-635.197
-734.181
-844.793
-966.709
-1097.59
-1235.07
-1377.85
133.265
127.332
126.84
123.81
121.749
119.685
117.504
115.203
112.773
110.192
107.433
104.474
101.233
97.7203
93.9159
89.7821
85.2753
80.2754
74.6458
68.4
61.5604
53.9172
45.5664
36.3877
26.1993
14.7723
1.81178
-12.5937
-28.7597
-46.9637
-67.6321
-91.0388
-117.3
-146.762
-180.034
-217.627
-260.093
-308.081
-362.242
-423.151
-491.479
-568.025
-653.477
-748.514
-853.921
-970.811
-1098.56
-1233.83
-1371.6
-1509.85
126.709
120.595
120.33
116.768
114.787
112.477
110.005
107.376
104.596
101.62
98.4232
94.9164
91.0719
86.7872
81.9831
76.7229
70.9974
64.8131
58.1251
50.7051
42.4615
33.1999
22.9211
11.5935
-0.831542
-14.429
-29.6807
-46.7438
-65.9541
-87.4754
-111.577
-138.525
-168.673
-202.406
-240.374
-283.099
-330.993
-384.549
-444.378
-511.166
-585.502
-667.964
-759.227
-859.895
-970.435
-1091.77
-1223.48
-1362.07
-1499.48
-1631.94
119.466
113.343
113.243
109.156
107.337
104.748
101.998
99.0761
95.9786
92.6347
88.9446
84.8377
80.2728
75.2565
69.7305
63.5739
56.7916
49.2699
40.9567
31.9567
22.1216
11.2951
-0.692213
-14.0133
-28.8198
-45.1476
-63.1365
-82.9845
-105.003
-129.62
-157.215
-187.986
-222.237
-260.399
-302.908
-350.257
-402.978
-461.566
-526.663
-598.817
-678.395
-765.949
-861.851
-966.476
-1080.34
-1204.52
-1338.93
-1479.88
-1616.02
-1740.3
111.739
105.79
105.763
101.04
99.4216
96.3603
93.4247
90.231
86.7437
82.9012
78.6437
73.9387
68.6887
62.8443
56.3888
49.2522
41.4496
32.9488
23.5433
13.0318
1.40642
-11.3251
-25.3006
-40.6996
-57.6929
-76.4711
-97.1825
-120.118
-145.451
-173.408
-204.342
-238.651
-276.732
-318.945
-365.673
-417.419
-474.706
-537.895
-607.376
-683.707
-767.403
-858.778
-958.163
-1065.81
-1181.91
-1307.45
-1442.94
-1584.94
-1719.07
-1832.46
103.547
97.8857
97.8048
92.7515
91.3159
87.5666
84.4668
80.8847
76.8901
72.4474
67.5172
62.0532
56.0785
49.5083
42.2481
34.228
25.2724
15.3111
4.47656
-7.38008
-20.5145
-34.8915
-50.6765
-68.0931
-87.3867
-108.676
-132.097
-157.774
-186.038
-217.216
-251.609
-289.414
-331.017
-376.972
-427.724
-483.495
-544.57
-611.391
-684.559
-764.505
-851.407
-945.628
-1047.35
-1156.63
-1273.66
-1399.37
-1534.53
-1675.76
-1806.24
-1906.45
94.8248
89.6706
89.4358
84.4555
83.0056
78.8639
75.5097
71.4074
66.8738
61.8271
56.2226
50.0033
43.1017
35.4815
27.1494
18.0335
8.13245
-2.88813
-15.1592
-28.6021
-43.4019
-59.6308
-77.3765
-96.6908
-117.901
-141.287
-167.159
-195.662
-226.887
-261.067
-298.517
-339.665
-384.755
-433.996
-487.785
-546.628
-610.95
-681.006
-756.991
-839.253
-928.269
-1024.17
-1127.05
-1237.13
-1354.41
-1479.46
-1612.55
-1750.6
-1876.4
-1962.05
85.8201
81.498
81.0565
76.4334
74.7484
70.3315
66.7154
62.1618
57.1034
51.4527
45.1454
38.1778
30.5156
21.9976
12.6073
2.15213
-9.24829
-21.6053
-35.1721
-50.0763
-66.364
-84.2619
-103.975
-125.583
-149.068
-174.672
-202.625
-233.265
-266.897
-303.771
-344.068
-387.92
-435.703
-487.858
-544.664
-606.352
-673.137
-745.297
-823.256
-907.376
-997.646
-1094.34
-1197.59
-1307.26
-1423.42
-1546.62
-1676.65
-1809.83
-1928.9
-1999.44
77.1713
73.7418
73.0955
68.6376
66.6433
62.1713
58.2344
53.3145
47.8168
41.6392
34.7401
26.9929
18.398
8.94734
-1.42337
-12.7848
-25.3912
-39.2027
-54.2238
-70.7422
-88.7713
-108.397
-129.745
-153.145
-178.699
-206.564
-236.927
-269.95
-305.859
-344.928
-387.53
-433.942
-484.24
-538.621
-597.439
-660.95
-729.494
-803.363
-882.634
-967.358
-1057.96
-1154.49
-1256.93
-1365.44
-1479.92
-1600.56
-1726.6
-1853.51
-1963.73
-2019.9
69.2365
66.5153
65.5355
61.4284
59.1343
54.5367
50.2733
45.0335
39.126
32.4409
25.0021
16.7597
7.53679
-2.72177
-14.1542
-26.6419
-40.3164
-55.3237
-71.6779
-89.4988
-109.043
-130.445
-153.754
-179.055
-206.523
-236.336
-268.69
-303.796
-341.828
-383.058
-427.657
-475.912
-528.109
-584.412
-644.952
-710.013
-779.779
-854.322
-933.898
-1018.88
-1109.12
-1204.72
-1305.84
-1412.21
-1523.73
-1640.6
-1762.43
-1882.74
-1982.53
-2025.77
62.1722
60.0038
58.8271
54.9424
52.5257
47.8483
43.301
37.7409
31.4663
24.3875
16.3682
7.4561
-2.37056
-13.2456
-25.2698
-38.6097
-53.2583
-69.3142
-86.9702
-106.194
-127.064
-149.766
-174.518
-201.475
-230.735
-262.486
-296.862
-333.974
-373.941
-416.96
-463.341
-513.254
-566.906
-624.556
-686.365
-752.35
-822.616
-897.527
-977.171
-1061.34
-1150.36
-1244.25
-1342.89
-1446.44
-1554.7
-1667.58
-1784.19
-1897.89
-1988.6
-2019.11
56.1448
54.4859
53.2609
49.616
47.0718
42.3659
37.6518
31.8572
25.2334
17.7844
9.47916
0.108774
-10.3523
-21.9377
-34.6337
-48.6248
-64.0007
-80.8678
-99.328
-119.668
-141.911
-166.094
-192.306
-220.683
-251.37
-284.532
-320.425
-359.159
-400.84
-445.599
-493.617
-545.054
-600.032
-658.632
-721.031
-787.451
-858.087
-932.741
-1011.43
-1094.59
-1182.03
-1273.65
-1369.53
-1469.45
-1573.33
-1681.08
-1791.38
-1897.94
-1980.85
-2003.5
51.5552
50.2075
49.2369
45.6952
42.9783
38.2914
33.4677
27.5945
20.8309
13.0418
4.33438
-5.32981
-16.1304
-28.1385
-41.4191
-56.0331
-72.0866
-89.7525
-109.016
-130.07
-153.099
-178.265
-205.68
-235.379
-267.49
-302.065
-339.326
-379.446
-422.471
-468.537
-517.716
-570.195
-626.12
-685.639
-748.753
-815.47
-885.714
-959.797
-1037.81
-1119.3
-1204.43
-1293.25
-1385.54
-1481.25
-1580.16
-1682.24
-1784.44
-1880.76
-1952.4
-1973.43
48.708
47.5914
46.5355
43.1634
40.3629
35.7753
30.9118
24.9977
18.2139
10.5286
1.67137
-8.284
-19.3747
-31.6727
-45.3131
-60.3583
-76.9275
-95.0888
-114.989
-136.976
-160.936
-186.981
-215.226
-245.817
-278.925
-314.591
-352.927
-394.103
-438.221
-485.423
-535.853
-589.367
-646.078
-706.055
-769.368
-836.02
-906.147
-979.538
-1055.95
-1135.77
-1218.7
-1304.5
-1393.13
-1484.3
-1577.26
-1671.83
-1763.72
-1845.47
-1900.08
-1919.43
47.5056
46.313
45.2012
42.1008
39.2764
34.822
30.0527
24.2416
17.4696
9.8793
1.23192
-8.65345
-19.7812
-32.2184
-46.1046
-61.4838
-78.5083
-97.2315
-116.865
-139.517
-164.169
-191.026
-220.18
-251.653
-285.665
-322.26
-361.611
-403.735
-448.8
-496.8
-547.857
-602.182
-659.58
-720.016
-783.531
-850.165
-919.788
-992.333
-1067.8
-1145.72
-1226.05
-1308.64
-1393.09
-1479.09
-1566.41
-1652.87
-1732.77
-1796.36
-1830.31
-1845.79
47.7387
46.3073
45.2725
42.3168
39.6541
35.4477
30.8674
25.3555
18.9081
11.4241
2.93296
-6.74197
-17.6428
-29.9126
-43.6716
-59.0482
-76.1206
-95.0259
-115.799
-138.648
-163.635
-190.861
-220.551
-252.74
-287.519
-324.872
-364.927
-407.866
-453.711
-502.548
-554.376
-609.172
-667.114
-728.128
-791.987
-858.532
-927.764
-999.685
-1073.9
-1150.3
-1228.51
-1308.18
-1389.08
-1470.52
-1551.64
-1629.5
-1698.2
-1746.16
-1761.56
-1770.73
49.3303
47.6579
46.5632
43.8659
41.3193
37.4313
33.2463
28.1226
22.187
15.1398
6.99477
-2.35688
-12.978
-25.0088
-38.5192
-53.6615
-70.3345
-89.0616
-110.063
-133.242
-158.659
-186.384
-216.536
-249.248
-284.655
-322.817
-363.7
-407.335
-454.031
-503.524
-556.101
-611.69
-670.124
-731.3
-795.232
-861.934
-931.244
-1002.77
-1076.18
-1151.17
-1227.54
-1304.84
-1382.41
-1459.56
-1535.61
-1606.1
-1664.74
-1701.87
-1712.12
-1715.52
51.9513
49.9224
48.9269
46.4521
44.2216
40.8331
37.1644
32.3834
26.9676
20.5501
12.9946
4.27393
-5.77747
-17.3021
-30.444
-45.3107
-61.9971
-79.9684
-100.896
-124.071
-149.594
-177.607
-208.207
-241.362
-277.219
-315.864
-357.452
-401.979
-449.411
-499.674
-552.67
-608.852
-668.043
-730.106
-794.835
-861.863
-931.064
-1002.41
-1075.75
-1150.35
-1225.5
-1301.01
-1376.75
-1451.8
-1523.69
-1587.54
-1636.66
-1663.32
-1675.68
-1675.81
55.0628
52.8875
51.9101
49.7342
47.7577
44.9185
41.9144
37.7687
32.8683
27.1282
20.2912
12.3435
3.07731
-7.62934
-19.9848
-34.1105
-50.3233
-67.7887
-88.3668
-111.312
-136.799
-164.876
-195.738
-229.374
-265.794
-305.072
-347.234
-392.51
-440.809
-492.067
-546.236
-603.167
-663.052
-725.67
-790.716
-858.323
-928.315
-1000.36
-1073.71
-1148.15
-1223.31
-1298.39
-1372.68
-1446.03
-1515.18
-1574.77
-1615.27
-1629.92
-1639.76
-1641.33
58.2032
56.1835
55.0987
53.3212
51.6141
49.3076
46.8344
43.4012
39.2805
34.429
28.5935
21.6167
13.297
3.49311
-7.94069
-21.1671
-36.3926
-53.6778
-73.2565
-95.7311
-120.894
-148.879
-179.735
-213.584
-250.435
-290.271
-333.151
-379.119
-428.25
-480.324
-535.42
-593.413
-654.236
-717.893
-784.323
-853.044
-923.816
-996.406
-1070.83
-1146.43
-1222.29
-1297.93
-1372.65
-1445.41
-1511.83
-1565.21
-1597.17
-1605.73
-1608.22
-1612.91
61.3013
59.5504
58.4063
56.9737
55.5494
53.5839
51.6316
49.0675
45.8845
41.9324
37.1334
31.3167
24.2559
15.7184
5.52874
-6.56754
-20.6897
-37.0196
-55.8781
-77.7442
-102.376
-130.045
-160.827
-194.785
-232.006
-272.398
-315.95
-362.729
-412.733
-466.02
-522.361
-581.487
-643.548
-708.304
-775.611
-845.402
-917.579
-991.967
-1067.88
-1144.76
-1222.43
-1300.06
-1375.93
-1447.73
-1511.48
-1558.64
-1579.33
-1588.91
-1586.09
-1591.54
64.2137
62.7542
61.3627
60.5776
59.3797
57.8359
56.3445
54.4587
52.1625
49.2214
45.5497
40.9528
35.2255
28.133
19.4026
8.72783
-4.12225
-19.2992
-37.0614
-57.8468
-81.8155
-108.922
-139.42
-173.311
-210.665
-251.561
-295.853
-343.524
-394.543
-448.92
-506.679
-567.401
-630.779
-697.019
-765.663
-836.917
-910.775
-986.796
-1064.74
-1144.23
-1224.33
-1303.86
-1381.52
-1453.31
-1514.79
-1554.45
-1564.27
-1569.49
-1569.32
-1573.4
66.4324
66.0257
63.7498
63.9456
62.8171
61.8953
60.8844
59.4836
57.9667
56.0183
53.5403
50.2845
45.9797
40.4477
33.3715
24.3861
13.1385
-0.685825
-17.2291
-36.8006
-59.6936
-86.0057
-116.151
-149.968
-187.446
-228.659
-273.681
-322.295
-374.515
-430.034
-488.979
-551.245
-616.345
-684.264
-754.952
-827.926
-903.215
-981.214
-1061.74
-1143.95
-1227.2
-1309.98
-1389.43
-1460.79
-1516.94
-1546.08
-1554.72
-1553.18
-1555.9
-1558.73
67.3374
69.3104
65.4554
66.886
65.6625
65.3773
64.9415
64.1966
63.419
62.3066
60.8113
58.8152
55.9469
51.9495
46.5188
39.3195
29.9633
18.0035
3.09019
-15.0825
-36.95
-61.6837
-91.2652
-124.756
-162.262
-203.866
-249.556
-299.238
-352.797
-410.121
-470.995
-535.301
-602.468
-671.81
-744.051
-818.562
-895.713
-975.752
-1058.78
-1144.44
-1231.59
-1317.6
-1399.03
-1471.28
-1520.89
-1534.42
-1542.62
-1539.91
-1543.87
-1546.43
66.2153
72.2505
66.5751
69.2228
67.8846
68.1488
68.0562
67.9949
68.0473
67.8445
67.3705
66.5562
65.083
62.6459
58.9236
53.5615
46.1529
36.2372
23.3057
6.84317
-13.4236
-37.5889
-65.8796
-98.8346
-136.321
-178.225
-224.532
-275.369
-330.289
-389.191
-451.814
-518.428
-588.395
-659.476
-734.367
-810.958
-889.268
-970.519
-1055.76
-1144.67
-1235.75
-1326.51
-1410.76
-1482.41
-1526.28
-1530.85
-1530.45
-1530.54
-1532.73
-1534.69
62.1873
74.7855
67.2917
70.6489
69.56
70.359
70.5413
70.9005
71.493
71.9595
72.4591
72.6213
72.35
71.4275
69.5489
66.1989
60.906
53.1374
42.3698
27.9838
9.49948
-13.0052
-40.0783
-72.4283
-109.73
-152.188
-199.358
-251.128
-307.801
-368.781
-433.83
-502.64
-575.345
-650.373
-727.349
-805.48
-885.229
-967.403
-1053.19
-1144.97
-1241.24
-1338.1
-1428.92
-1499.29
-1520.91
-1532.21
-1523.01
-1522.58
-1521.91
-1522.41
34.5435
68.4819
67.3659
70.6766
70.6607
71.5224
72.2242
73.1248
74.1692
75.6608
76.9095
77.6545
78.6936
79.2404
79.1459
77.5676
73.7934
67.6049
58.9714
46.8933
30.6564
10.0008
-16.2152
-48.1774
-85.386
-128.206
-176.609
-229.858
-287.971
-350.963
-418.85
-490.519
-566.112
-644.382
-724.396
-805.084
-886.373
-968.925
-1053.64
-1145.17
-1244.85
-1344.24
-1429.51
-1491.12
-1513.72
-1521.52
-1513.53
-1512.28
-1509.15
-1507.94
262.142
257.988
256.172
255.116
254.416
254.091
254.166
254.522
255.058
255.909
257.084
258.607
260.51
262.795
265.408
268.324
271.59
275.148
279.038
283.314
287.917
292.797
297.926
303.403
309.322
315.497
321.906
328.453
334.917
341.304
347.573
353.651
359.351
364.464
368.719
372.074
374.199
374.765
373.184
368.784
361.303
350.451
335.595
315.858
290.369
258.43
219.732
174.91
117.642
58.3339
259.838
256.226
254.955
253.784
253.057
252.777
252.755
253.003
253.497
254.293
255.389
256.748
258.374
260.355
262.658
265.265
268.253
271.53
275.032
278.78
282.818
287.093
291.506
296.003
300.789
305.785
310.832
316.117
321.391
326.439
331.121
335.295
338.938
341.67
343.244
343.553
342.432
339.481
334.222
326.03
314.325
298.677
278.648
253.623
222.618
184.775
139.705
88.4422
26.3062
-38.5107
257.094
253.839
253.15
252.132
251.513
251.278
251.256
251.443
251.934
252.756
253.85
255.23
256.786
258.53
260.525
262.761
265.303
268.209
271.367
274.672
278.068
281.659
285.461
289.33
293.109
297.024
300.834
304.462
307.96
311.259
314.193
316.433
317.823
318.08
316.96
314.233
309.712
303.065
293.848
281.479
265.409
245.087
219.907
189.487
152.946
109.552
58.832
1.61601
-62.9391
-128.207
254.214
251.151
251.024
250.208
249.724
249.471
249.501
249.76
250.263
251.045
252.071
253.345
254.859
256.524
258.381
260.448
262.654
265.049
267.668
270.556
273.505
276.345
279.212
282.227
285.115
287.729
290.271
292.552
294.474
295.823
296.546
296.547
295.523
293.259
289.279
283.446
275.555
265.063
251.775
235.148
214.589
189.62
159.735
124.391
82.8997
34.6514
-20.6891
-81.8805
-147.604
-210.478
251.211
248.423
248.637
247.782
247.439
247.27
247.283
247.544
248.085
248.843
249.822
250.97
252.317
253.824
255.481
257.329
259.301
261.293
263.325
265.412
267.705
270.075
272.197
274.092
275.964
277.557
278.664
279.26
279.454
278.926
277.543
274.981
271.323
266.272
259.488
250.573
239.305
225.318
208.086
187.305
162.573
133.386
99.2297
59.6546
14.2658
-37.528
-95.9602
-159.378
-225.331
-284.523
248.232
245.615
245.925
244.781
244.514
244.412
244.472
244.722
245.187
245.838
246.657
247.632
248.791
250.14
251.581
253.054
254.592
256.172
257.777
259.249
260.503
261.852
263.13
264.057
264.519
264.841
264.737
264.005
262.403
259.788
256.138
251.306
245.006
237.114
227.36
215.428
200.889
183.405
162.688
138.362
110.055
77.3949
39.9658
-2.6402
-50.6594
-104.576
-164.56
-228.89
-293.99
-348.214
245.118
242.469
242.795
241.483
241.32
241.125
241.106
241.324
241.704
242.184
242.796
243.499
244.269
245.194
246.245
247.303
248.296
249.215
250.052
250.905
251.533
251.813
251.892
251.793
251.292
250.04
248.089
245.55
242.192
237.748
231.897
224.752
215.979
205.518
192.996
178.159
160.767
140.357
116.628
89.3605
58.2348
22.9755
-16.709
-61.0814
-110.355
-164.928
-225.112
-289.118
-351.939
-399.613
241.666
239.042
239.355
237.908
237.883
237.653
237.531
237.562
237.741
237.977
238.31
238.755
239.187
239.551
239.891
240.29
240.701
241.02
241.117
240.916
240.527
239.771
238.58
236.874
234.961
232.379
229.108
224.811
219.422
212.914
205.164
195.808
184.827
171.868
156.821
139.493
119.528
96.7168
70.8238
41.5524
8.61258
-28.2062
-69.0546
-114.114
-163.559
-217.735
-276.689
-338.715
-397.886
-437.516
237.767
235.263
235.492
234.152
234.046
233.685
233.493
233.391
233.333
233.344
233.354
233.35
233.362
233.298
233.048
232.611
232.076
231.434
230.687
229.636
228.169
226.341
224.101
221.137
217.431
213.07
207.898
201.809
194.654
186.181
176.365
165.037
152.031
137.137
120.041
100.597
78.718
54.1097
26.5878
-4.0276
-37.9091
-75.2029
-116.083
-160.701
-209.247
-262.076
-318.898
-377.614
-431.436
-461.721
233.495
231.064
231.183
229.826
229.624
229.123
228.8
228.577
228.3
228.026
227.759
227.383
226.868
226.227
225.488
224.529
223.271
221.685
219.732
217.494
214.791
211.542
207.84
203.619
198.507
192.731
185.949
178.021
168.917
158.631
146.954
133.785
118.856
102.114
83.4469
62.542
39.2303
13.5
-14.7966
-45.8676
-79.8973
-116.949
-157.063
-200.354
-246.99
-297.35
-351.214
-405.623
-453.132
-474.954
228.529
226.377
226.351
224.993
224.617
223.955
223.478
223.045
222.564
221.995
221.304
220.543
219.658
218.529
217.127
215.436
213.41
211.029
208.201
204.91
201.171
196.814
191.657
185.904
179.279
171.597
163.052
153.612
142.928
130.918
117.556
102.732
86.3952
68.2832
48.1876
26.2002
2.19092
-24.0753
-52.6241
-83.5348
-116.9
-152.791
-191.272
-232.411
-276.334
-323.263
-373.114
-423.048
-465.107
-480.81
222.883
221.059
220.899
219.693
219.365
218.496
217.824
217.104
216.288
215.427
214.353
213.036
211.546
209.92
208.057
205.832
203.194
199.933
196.076
191.574
186.557
181.028
174.755
167.594
159.692
150.83
140.768
129.582
117.369
103.954
89.1397
72.8749
55.0851
35.876
15.1516
-7.42325
-31.8621
-58.1099
-86.2466
-116.332
-148.47
-182.664
-218.882
-257.119
-297.435
-340.152
-384.811
-429.27
-466.253
-479.941
216.666
215.359
215.159
214.062
213.724
212.771
211.959
210.997
209.82
208.538
207.121
205.449
203.405
200.972
198.222
195.169
191.755
187.903
183.462
178.288
172.323
165.604
158.15
149.721
140.242
129.84
118.554
106.171
92.528
77.7095
61.7334
44.4935
25.8902
5.77351
-15.7407
-38.4707
-62.6218
-88.3214
-115.537
-144.333
-174.662
-206.495
-239.812
-274.579
-310.739
-348.435
-386.45
-422.646
-450.77
-464.104
210.322
209.343
209.235
208.314
207.82
206.8
205.927
204.734
203.338
201.681
199.739
197.562
195.144
192.322
189.038
185.245
180.791
175.837
170.362
164.34
157.489
149.798
141.241
131.84
121.503
110.007
97.3267
83.6473
68.9114
53.0215
35.9625
17.7362
-1.62147
-22.0001
-43.539
-66.3525
-90.2275
-115.122
-141.06
-168.011
-196.06
-225.13
-255.084
-285.777
-317.433
-349.179
-379.195
-403.712
-417.909
-428.872
204.035
203.464
203.233
202.432
201.908
200.771
199.79
198.418
196.84
195.031
192.822
190.194
187.132
183.644
179.718
175.315
170.384
164.783
158.454
151.46
143.713
135.083
125.506
114.883
103.257
90.7573
77.1926
62.4202
46.576
29.7201
11.8476
-7.00742
-26.8917
-47.7801
-69.4199
-91.6843
-114.709
-138.443
-162.844
-187.941
-213.544
-239.527
-265.759
-292.17
-318.527
-343.762
-366.078
-381.865
-387.371
-392.693
197.876
197.544
197.511
196.713
196.169
195.04
193.87
192.299
190.501
188.384
185.914
183.129
179.88
176.142
171.717
166.576
160.827
154.445
147.374
139.452
130.804
121.247
110.791
99.4186
86.9487
73.2627
58.5891
42.9568
26.2315
8.45836
-10.2567
-29.9059
-50.2513
-71.16
-92.7143
-114.803
-137.149
-159.69
-182.34
-205.108
-228.134
-251.222
-274.054
-296.426
-317.694
-336.919
-352.431
-362.584
-369.511
-371.754
191.873
191.856
191.9
191.238
190.644
189.538
188.379
186.712
184.789
182.445
179.659
176.429
172.745
168.653
164.067
158.841
152.781
145.871
138.18
129.632
120.167
109.705
98.2196
85.7134
72.3078
57.8613
42.2413
25.5189
7.80793
-10.8328
-30.3287
-50.5875
-71.5393
-92.9688
-114.555
-136.214
-157.863
-179.242
-200.312
-221.1
-241.58
-261.816
-281.566
-300.389
-317.669
-332.525
-343.408
-348.817
-354.132
-355.871
186.341
186.679
186.747
186.188
185.645
184.486
183.291
181.538
179.544
177.083
174.234
170.939
167.087
162.576
157.479
151.815
145.483
138.319
130.182
121.175
111.218
100.227
88.1224
74.8582
60.4048
44.9277
28.3971
10.7256
-7.96073
-27.5947
-48.0664
-69.1923
-90.8086
-112.739
-134.802
-156.625
-177.877
-198.443
-218.11
-236.9
-255.192
-272.828
-289.641
-305.58
-319.828
-330.697
-337.1
-342.428
-344.13
-345.802
181.431
182.121
182.208
181.665
181.274
180.167
178.96
177.173
175.099
172.524
169.464
165.94
161.977
157.489
152.327
146.416
139.788
132.407
124.137
114.829
104.454
92.9918
80.3047
66.4436
51.3209
34.9272
17.3679
-1.27957
-21.0153
-41.7583
-63.3316
-85.614
-108.394
-131.353
-154.21
-176.665
-198.243
-218.412
-237.098
-254.384
-270.26
-285.094
-299.154
-312.279
-323.561
-331.617
-335.556
-338.334
-339.817
-340.508
177.228
178.147
178.277
177.85
177.525
176.417
175.241
173.523
171.507
168.993
166.023
162.462
158.235
153.457
148.127
142.125
135.341
127.74
119.33
109.95
99.4988
87.9227
75.0602
60.7858
45.1613
28.1631
9.79899
-9.93181
-30.9265
-53.0008
-75.9251
-99.5624
-123.742
-148.277
-172.691
-196.43
-218.983
-239.87
-258.356
-274.216
-287.917
-299.57
-309.866
-319.477
-327.619
-332.907
-337.3
-337.942
-338.953
-339.007
173.592
174.737
175.017
174.713
174.473
173.399
172.438
170.754
168.779
166.177
163.175
159.722
155.675
150.92
145.482
139.42
132.624
125.028
116.581
107.164
96.6698
84.9706
71.9896
57.5587
41.5199
24.0675
5.17398
-15.3483
-37.4078
-60.8341
-85.4827
-110.976
-136.994
-163.468
-190.209
-216.531
-241.411
-263.684
-282.741
-298.035
-309.172
-316.962
-322.758
-327.339
-330.925
-335.098
-337.88
-339.531
-340.369
-340.133
170.537
171.782
172.183
172.104
172.093
171.087
170.304
168.671
166.998
164.566
161.586
157.986
153.914
149.261
143.913
137.865
131.118
123.597
115.207
105.952
95.6689
84.1812
71.3536
57.14
41.3211
23.6456
3.97868
-17.37
-40.4854
-65.3325
-91.6743
-119.144
-147.536
-176.601
-206.189
-235.823
-264.474
-290.606
-312.024
-327.273
-336.339
-339.366
-337.95
-335.311
-335.664
-337.875
-340.906
-343.234
-344.416
-344.193
167.853
169.235
169.76
169.967
170.125
169.458
168.785
167.269
165.7
163.408
160.698
157.31
153.295
148.69
143.491
137.592
131.004
123.698
115.531
106.467
96.4164
85.2428
72.6911
58.558
42.9156
25.386
5.69662
-16.0575
-39.9389
-66.0292
-94.0872
-123.776
-154.574
-186.361
-219.491
-253.865
-288.182
-319.978
-346.342
-364.109
-371.482
-368.13
-358.318
-349.682
-346.125
-346.362
-348.276
-350.069
-350.958
-350.774
165.491
167.152
167.616
168.135
168.445
168.187
167.729
166.564
165.179
162.927
160.325
157.15
153.318
148.806
143.686
137.916
131.476
124.354
116.527
107.869
98.3008
87.729
75.9142
62.5542
47.4174
30.126
10.7006
-11.2365
-35.6577
-62.6789
-92.3034
-124.252
-157.897
-192.69
-229.144
-268.163
-309.443
-350.647
-386.673
-410.706
-417.403
-406.061
-388.042
-374.595
-366.881
-362.884
-360.24
-358.834
-358.176
-358.1
163.217
165.391
165.524
166.624
167.218
167.276
166.995
166.126
165.015
163.154
160.728
157.606
154.007
149.656
144.642
139.001
132.753
125.831
118.254
109.958
100.879
90.8996
79.7582
67.3274
53.1723
36.8254
18.0094
-3.52519
-27.8668
-55.2685
-86.1868
-120.133
-156.126
-193.877
-233.777
-277.544
-326.62
-379.408
-429.298
-466.489
-474.362
-452.724
-427.392
-406.238
-391.498
-380.514
-372.492
-366.901
-363.616
-362.795
160.455
163.801
163.56
165.176
166.052
166.493
166.634
166.099
165.109
163.586
161.537
158.522
154.972
150.73
145.791
140.177
133.958
127.167
119.796
111.862
103.318
94.115
84.1285
72.9902
60.2893
45.6127
28.2043
7.71148
-16.1947
-43.6951
-75.2016
-110.795
-149.531
-189.91
-232.184
-279.121
-333.507
-398.083
-466.634
-521.307
-536.549
-508.997
-467.023
-436.148
-411.958
-394.075
-380.965
-371.033
-364.917
-362.803
157.284
162.339
161.308
163.75
164.953
165.646
166.196
166.121
165.502
164.261
162.602
159.937
156.483
152.366
147.468
141.843
135.566
128.689
121.291
113.515
105.363
96.7832
87.7857
78.0131
67.0894
54.4439
39.2577
20.6812
-1.81804
-28.5319
-59.8067
-96.2888
-136.876
-179.482
-223.678
-271.596
-329.795
-404.872
-489.727
-562.676
-583.934
-560.265
-500.615
-463.01
-432.589
-407.325
-386.964
-371.565
-361.755
-357.186
153.404
161.239
159.004
162.35
163.818
164.893
165.789
166.131
165.977
165.133
163.576
161.245
157.994
154.037
149.155
143.382
136.953
129.846
122.263
114.368
106.352
98.181
89.8713
81.5721
72.9236
63.1411
51.1568
35.6054
15.7727
-9.19702
-39.8194
-76.9943
-119.328
-164.143
-209.604
-256.771
-312.886
-388.471
-484.817
-575.031
-599.657
-572.568
-527.774
-490.697
-460.581
-432.706
-406.323
-382.656
-365.994
-357.081
147.433
160.608
156.847
160.87
162.526
163.85
165.188
165.956
166.311
166.059
164.814
162.664
159.757
155.865
151.012
145.253
138.517
130.937
123
114.823
106.52
98.4045
90.6111
83.5939
76.9735
70.3461
61.8581
50.4463
34.4703
12.9771
-15.6521
-52.1572
-96.4304
-144.17
-191.437
-237.904
-287.227
-357.729
-452.702
-543.611
-586.233
-566.718
-539.648
-514.512
-491.724
-467.074
-438.145
-408.091
-385.923
-374.438
122.655
154.037
154.447
159.201
161.073
162.822
164.429
165.526
165.999
165.868
165.425
164.044
161.243
156.893
151.891
146.334
139.5
131.476
122.496
113.72
105.384
97.2449
89.5865
83.0521
78.5823
75.2094
70.5566
64.3972
54.1326
37.5013
11.8153
-23.9099
-69.834
-121.029
-169.725
-212.225
-255.784
-319.488
-398.894
-483.791
-540.788
-553.276
-546.386
-533.386
-517.672
-500.955
-477.415
-447.361
-422.8
-410.361
126.308
152.499
154.774
157.732
160.16
162.529
164.45
166.045
167.237
167.361
166.851
165.697
163.291
159.428
153.916
147.266
139.873
131.427
121.336
110.822
101.114
92.475
84.2689
76.8106
72.7634
72.1577
72.6817
71.2086
66.4969
56.4008
36.4293
1.51544
-52.0491
-116.337
-172.448
-209.699
-244.875
-314.699
-398.199
-477.813
-529.112
-554.267
-558.606
-551.878
-541.658
-529.77
-512.672
-490.421
-472.932
-465.074
136.554
150.265
153.923
157.053
159.911
162.495
164.604
166.734
168.48
168.897
167.925
166.154
163.463
159.344
153.56
146.071
137.343
127.605
116.642
105.082
94.1731
84.4714
75.9694
69.3086
67.7764
70.6399
74.5334
79.9391
81.6963
74.8774
56.1108
14.035
-55.1337
-137.419
-203.975
-248.307
-285.171
-344.843
-434.145
-503.862
-549.819
-573.73
-580.552
-577.212
-570.313
-563.487
-554.041
-540.903
-534.612
-536.681
145.103
151.006
154.377
157.445
160.732
163.618
165.746
167.625
168.51
168.835
168.013
165.529
161.701
156.088
148.858
140.101
129.994
118.585
106.332
93.4715
81.5834
71.6638
64.7257
61.2661
61.7478
69.0278
82.0379
93.4329
102.852
103.529
84.8153
29.0921
-65.6442
-175.835
-257.925
-305.629
-348.652
-414.63
-489.532
-548.385
-587.125
-607.978
-614.631
-612.98
-608.301
-606.293
-604.925
-601.151
-606.89
-621.069
149.223
152.657
155.958
159.152
162.758
164.994
166.816
168.836
169.883
169.008
166.489
162.794
157.664
150.462
140.978
129.662
117.076
102.898
87.9704
73.8822
61.3447
52.1419
46.5985
45.7395
53.8074
70.4858
89.5961
114.919
143.879
156.964
130.944
46.604
-87.618
-220.516
-308.714
-369.824
-431.965
-498.905
-562.009
-611.533
-643.824
-660.92
-665.002
-662.894
-661.108
-664.237
-670.401
-676.436
-692.169
-715.288
150.587
154.161
157.56
160.775
164.566
167.365
169.211
170.367
170.247
168.575
165.023
159.287
151.501
141.826
129.619
115.206
99.0155
81.7234
63.1597
45.477
31.2011
21.0718
18.0994
25.8528
42.3381
62.5002
103.197
162.09
215.124
228.66
172.754
49.9257
-114.035
-266.061
-377.983
-462.139
-537.513
-607.162
-664.502
-705.562
-729.98
-739.55
-739.939
-735.731
-734.726
-741.396
-753.711
-770.129
-795.549
-825.194
150.715
154.424
158.205
162.17
166.008
168.993
170.213
171.331
171.354
168.168
162.712
155.3
144.72
131.139
114.545
95.9308
75.2388
52.651
29.453
6.89715
-11.9394
-21.5597
-18.6165
-8.54538
9.6485
59.6163
140.042
231.123
283.012
269.865
181.395
25.8164
-169.534
-351.818
-491.121
-594.825
-680.86
-751.092
-801.6
-832.735
-847.737
-850.149
-844.384
-836.292
-834.263
-842.172
-858.057
-881.474
-916.849
-956.496
148.638
153.338
158.761
164.217
167.251
169.772
172.481
172.182
169.611
164.661
157.306
147.174
133.771
116.507
95.4438
70.8089
43.8139
14.2158
-17.6063
-48.1497
-71.1929
-82.7584
-84.1439
-68.9592
-20.8349
68.9182
174.151
262.778
295.796
231.372
85.9027
-102.448
-306.123
-496.487
-653.278
-771.567
-860.546
-925.467
-967.519
-987.955
-991.835
-985.176
-973.709
-961.915
-957.72
-965.386
-983.727
-1011.75
-1053.14
-1104.44
144.906
152.328
156.851
162.215
168.424
169.858
169.62
168.588
165.486
158.742
148.501
134.547
116.123
93.3388
66.901
35.4757
-0.542505
-40.3454
-83.6595
-126.539
-163.854
-187.496
-184.645
-141.135
-56.6385
45.0286
145.285
193.925
162.428
50.4848
-119.713
-319.719
-526.14
-715.841
-872.964
-990.402
-1072.23
-1126.68
-1159.37
-1167.43
-1158.58
-1141.24
-1122.83
-1106.61
-1098.82
-1104.91
-1124.85
-1158.32
-1203.36
-1264.85
136.568
144.218
152.973
157.675
160.077
164.748
166.384
161.793
154.748
144.475
131.093
112.964
89.5392
59.9889
24.3897
-16.201
-62.9832
-118.033
-182.408
-252.615
-311.354
-336.117
-311.116
-233.544
-126.408
-24.0897
25.6355
6.55878
-75.5183
-214.593
-394.414
-596.774
-798.936
-979.521
-1126.05
-1234.27
-1306.58
-1350.7
-1366.18
-1361.58
-1341.08
-1313.45
-1287.13
-1265.8
-1254.41
-1257.94
-1277.15
-1314.08
-1364.26
-1417.26
116.136
130.524
139.847
145.892
148.498
147.77
145.919
139.1
129.941
116.656
99.6358
76.9212
47.1345
11.2827
-33.5141
-88.7441
-153.891
-233.784
-333.669
-437.723
-507.781
-523.547
-456.512
-333.252
-218.213
-160.409
-162.239
-220.797
-333.788
-490.506
-678.511