/*--------------------------------*- C++ -*----------------------------------*\
| =========                 |                                                 |
| \\      /  F ield         | OpenFOAM: The Open Source CFD Toolbox           |
|  \\    /   O peration     | Version:  v1912                                 |
|   \\  /    A nd           | Website:  www.openfoam.com                      |
|    \\/     M anipulation  |                                                 |
\*---------------------------------------------------------------------------*/
FoamFile
{
    version     2.0;
    format      ascii;
    class       surfaceScalarField;
    location    "0.47";
    object      phi;
}
// * * * * * * * * * * * * * * * * * * * * * * * * * * * * * * * * * * * * * //

dimensions      [0 3 -1 0 0 0 0];
oriented        oriented;


internalField   nonuniform List<scalar> 
13060
(
0.00558857
0.988599
-0.994187
0.00699521
0.946347
-0.947754
0.00762125
0.901084
-0.90171
0.00837141
0.858056
-0.858806
0.00938229
0.817384
-0.818395
0.0105344
0.77863
-0.779782
0.0117759
0.741717
-0.742958
0.0130418
0.706395
-0.70766
0.0142061
0.672709
-0.673874
0.0153603
0.640407
-0.641561
0.0166316
0.609357
-0.610628
0.0178918
0.579736
-0.580997
0.0190776
0.551516
-0.552702
0.020226
0.524578
-0.525726
0.0213042
0.498997
-0.500075
0.022344
0.474818
-0.475858
0.0232456
0.451947
-0.452849
0.0237915
0.430414
-0.43096
0.0239268
0.409928
-0.410063
0.0236688
0.390588
-0.39033
0.0231309
0.372178
-0.37164
0.0225786
0.354696
-0.354144
0.0222655
0.338192
-0.337879
0.0219093
0.322888
-0.322532
0.0213961
0.308353
-0.30784
0.0208874
0.294441
-0.293933
0.0203191
0.281432
-0.280863
0.0195853
0.269241
-0.268507
0.0186523
0.257791
-0.256858
0.0175209
0.247038
-0.245906
0.0162881
0.236898
-0.235665
0.0150935
0.227178
-0.225983
0.0139593
0.217872
-0.216738
0.012852
0.2091
-0.207993
0.0117275
0.200913
-0.199788
0.0105794
0.193215
-0.192067
0.00940216
0.185957
-0.18478
0.00824659
0.179073
-0.177918
0.00717007
0.17251
-0.171434
0.00615887
0.166292
-0.16528
0.00518178
0.160369
-0.159392
0.00419076
0.154762
-0.153771
0.00317969
0.14935
-0.148339
0.00215839
0.144258
-0.143237
0.00118115
0.139236
-0.138259
0.000318879
0.134637
-0.133775
-0.000579511
0.129564
-0.128665
-0.00165538
0.125945
-0.124869
-0.00171329
0.116942
-0.116884
0.0850863
-0.0867996
0.00558001
0.983019
0.00680694
0.94512
0.00743732
0.900454
0.00783617
0.857657
0.00835127
0.816869
0.00907591
0.777905
0.00998417
0.740808
0.0111327
0.705246
0.012458
0.671384
0.013752
0.639113
0.0150116
0.608097
0.01626
0.578488
0.0173173
0.550459
0.018121
0.523774
0.0186465
0.498472
0.0188951
0.474569
0.019022
0.45182
0.0191586
0.430278
0.0192638
0.409823
0.0195028
0.390349
0.0195363
0.372144
0.0192231
0.35501
0.0187036
0.338712
0.0181158
0.323476
0.0173202
0.309149
0.0163837
0.295378
0.0154686
0.282347
0.0145787
0.270131
0.0137733
0.258596
0.0130433
0.247768
0.0123742
0.237567
0.0116188
0.227933
0.0107304
0.218761
0.00976669
0.210064
0.00874977
0.20193
0.00767882
0.194286
0.00665001
0.186986
0.00564629
0.180077
0.00461394
0.173543
0.00355562
0.16735
0.00247683
0.161448
0.00142799
0.15581
0.000474569
0.150303
-0.000341466
0.145074
-0.00117293
0.140068
-0.00185947
0.135324
-0.00254142
0.130246
-0.0027834
0.126187
-0.00231069
0.116469
0.0827756
0.00532446
0.977694
0.00595057
0.944494
0.00625856
0.900146
0.00662662
0.857289
0.00714203
0.816353
0.00789474
0.777153
0.00877376
0.739929
0.00966011
0.70436
0.0105995
0.670445
0.0116332
0.638079
0.0126067
0.607123
0.0135086
0.577586
0.0143479
0.54962
0.0150929
0.523029
0.0157546
0.49781
0.016313
0.474011
0.0165996
0.451534
0.01661
0.430267
0.0162014
0.410231
0.0155005
0.39105
0.0147812
0.372863
0.0142941
0.355497
0.0137818
0.339224
0.0132809
0.323977
0.0127724
0.309657
0.0121247
0.296026
0.0113699
0.283102
0.0104999
0.271001
0.00954049
0.259556
0.00842379
0.248884
0.00722494
0.238766
0.00608517
0.229073
0.00506119
0.219785
0.0040281
0.211097
0.00301382
0.202944
0.00207417
0.195225
0.00118037
0.18788
0.000324257
0.180933
-0.000455582
0.174323
-0.00116161
0.168056
-0.00175712
0.162044
-0.00225992
0.156313
-0.00273904
0.150782
-0.00319376
0.145529
-0.00356181
0.140436
-0.0038491
0.135611
-0.00407931
0.130476
-0.00368514
0.125793
-0.00267461
0.115459
0.080101
0.00459627
0.973098
0.00501921
0.944071
0.00526263
0.899902
0.00538604
0.857166
0.00572505
0.816014
0.00623383
0.776644
0.00699259
0.739171
0.00795515
0.703397
0.00891336
0.669487
0.00982145
0.637171
0.0106551
0.60629
0.011306
0.576935
0.0118027
0.549123
0.0120668
0.522765
0.0120311
0.497846
0.0119081
0.474134
0.0118242
0.451618
0.0117764
0.430315
0.01182
0.410188
0.0117537
0.391116
0.0114215
0.373196
0.0107936
0.356125
0.0100485
0.339969
0.009217
0.324808
0.00830805
0.310566
0.00735558
0.296978
0.00643056
0.284027
0.00552632
0.271905
0.00464313
0.260439
0.003938
0.249589
0.00339975
0.239304
0.00276807
0.229705
0.00196221
0.22059
0.00113655
0.211923
0.000338741
0.203742
-0.000475029
0.196039
-0.00129271
0.188698
-0.00203262
0.181673
-0.00277651
0.175066
-0.00351786
0.168797
-0.00424498
0.162771
-0.00488191
0.15695
-0.00536537
0.151266
-0.00563442
0.145798
-0.00570589
0.140507
-0.00562035
0.135526
-0.00547516
0.130331
-0.00473793
0.125056
-0.0032117
0.113933
0.0768893
0.00412989
0.968968
0.00412975
0.944071
0.00396737
0.900065
0.00413784
0.856995
0.00460699
0.815545
0.00512056
0.77613
0.00569978
0.738591
0.00631968
0.702777
0.00695181
0.668854
0.00752949
0.636593
0.00797658
0.605843
0.00826268
0.576649
0.00858745
0.548798
0.00891139
0.522441
0.00920157
0.497555
0.00934068
0.473995
0.00923235
0.451726
0.00879078
0.430757
0.00803
0.410949
0.00718023
0.391966
0.0065496
0.373826
0.0058976
0.356777
0.00532075
0.340546
0.00481914
0.32531
0.00420415
0.311181
0.00348023
0.297702
0.00267583
0.284831
0.0019046
0.272676
0.00101783
0.261326
-8.27937e-05
0.25069
-0.00136147
0.240583
-0.00246826
0.230812
-0.00337223
0.221494
-0.00425163
0.212802
-0.00514507
0.204635
-0.00594734
0.196842
-0.00664318
0.189393
-0.00727453
0.182304
-0.0077534
0.175545
-0.00804297
0.169087
-0.00815241
0.16288
-0.00812585
0.156924
-0.00802917
0.151169
-0.00786801
0.145637
-0.00760783
0.140247
-0.00715346
0.135071
-0.0066449
0.129822
-0.00562764
0.124038
-0.00372295
0.112028
0.0731664
0.00376686
0.965201
0.00345339
0.944385
0.00328775
0.90023
0.00331943
0.856964
0.00350216
0.815362
0.00397391
0.775658
0.00455803
0.738007
0.00505602
0.702279
0.00548295
0.668427
0.0058853
0.636191
0.00618171
0.605546
0.00623857
0.576592
0.00609562
0.548941
0.00574366
0.522793
0.00528188
0.498017
0.00488143
0.474395
0.00456702
0.452041
0.00446812
0.430855
0.00443017
0.410987
0.00408538
0.39231
0.0034595
0.374452
0.00262352
0.357613
0.00164677
0.341523
0.000756212
0.3262
-2.74058e-05
0.311965
-0.000921535
0.298596
-0.0019022
0.285812
-0.00289449
0.273668
-0.00372509
0.262156
-0.00428261
0.251248
-0.00470309
0.241003
-0.0052865
0.231395
-0.006087
0.222295
-0.00684937
0.213565
-0.00746984
0.205256
-0.00802547
0.197397
-0.00852064
0.189889
-0.00893521
0.182719
-0.00929857
0.175909
-0.00964917
0.169438
-0.0099514
0.163183
-0.0101335
0.157106
-0.0101279
0.151163
-0.0098679
0.145376
-0.00937112
0.13975
-0.00867905
0.134379
-0.00795483
0.129098
-0.00664713
0.122731
-0.00428036
0.109661
0.068886
0.00360399
0.961597
0.00298586
0.945003
0.00253201
0.900684
0.00262446
0.856871
0.00292189
0.815065
0.00311592
0.775464
0.00331017
0.737813
0.00350274
0.702087
0.00361296
0.668317
0.00365276
0.636151
0.00361618
0.605583
0.0036157
0.576593
0.0035881
0.548969
0.00357967
0.522802
0.00344575
0.498151
0.00310672
0.474734
0.00251503
0.452632
0.00160574
0.431765
0.000702551
0.41189
-3.44093e-05
0.393047
-0.000707366
0.375125
-0.0012678
0.358173
-0.00192987
0.342185
-0.00273051
0.327001
-0.00351258
0.312747
-0.00424976
0.299333
-0.00495522
0.286517
-0.00566083
0.274374
-0.00655792
0.263053
-0.0077332
0.252423
-0.00895735
0.242227
-0.00994038
0.232378
-0.0106288
0.222983
-0.0112718
0.214208
-0.011957
0.205941
-0.0125493
0.197989
-0.0130106
0.19035
-0.0133547
0.183063
-0.0135283
0.176082
-0.0134785
0.169388
-0.0132024
0.162906
-0.0127492
0.156653
-0.012199
0.150613
-0.0115991
0.144777
-0.0109239
0.139075
-0.0101064
0.133562
-0.00912387
0.128115
-0.00750403
0.121111
-0.0047194
0.106877
0.0641666
0.00326633
0.958331
0.00248238
0.945787
0.00189693
0.90127
0.00175614
0.857012
0.0018408
0.81498
0.00200023
0.775305
0.00209072
0.737723
0.00203243
0.702145
0.00198465
0.668365
0.00196448
0.636171
0.00183915
0.605708
0.00155685
0.576875
0.00104183
0.549484
0.000436695
0.523407
-0.000120951
0.498709
-0.000650327
0.475264
-0.000952596
0.452934
-0.00112507
0.431937
-0.00148546
0.41225
-0.00217939
0.393741
-0.00310174
0.376047
-0.00406274
0.359134
-0.00499253
0.343115
-0.00586925
0.327878
-0.0067491
0.313627
-0.00771887
0.300303
-0.00877337
0.287572
-0.00976677
0.275367
-0.0104773
0.263764
-0.0108537
0.252799
-0.0111326
0.242506
-0.0116134
0.232859
-0.0123378
0.223708
-0.0130102
0.21488
-0.0134593
0.20639
-0.0137567
0.198287
-0.0139831
0.190576
-0.0141239
0.183204
-0.0141895
0.176148
-0.0142113
0.16941
-0.0141907
0.162886
-0.0140608
0.156523
-0.0137444
0.150297
-0.0131892
0.144221
-0.0124284
0.138314
-0.0114597
0.132593
-0.0103013
0.126957
-0.00847237
0.119282
-0.00518574
0.10359
0.0589809
0.00343271
0.954898
0.00250957
0.94671
0.00183755
0.901942
0.00140758
0.857442
0.00110872
0.815279
0.000785085
0.775629
0.000500997
0.738007
0.000218701
0.702427
-0.000102814
0.668687
-0.000478792
0.636547
-0.000735952
0.605965
-0.000884259
0.577023
-0.000988699
0.549588
-0.00120014
0.523618
-0.00151875
0.499027
-0.00209736
0.475842
-0.00302646
0.453864
-0.00397387
0.432885
-0.00474261
0.413019
-0.00532023
0.394319
-0.00591469
0.376642
-0.00656506
0.359784
-0.00737001
0.34392
-0.00823223
0.32874
-0.00901406
0.314408
-0.00970374
0.300993
-0.0103463
0.288214
-0.0110463
0.276068
-0.0119806
0.264698
-0.0131702
0.253989
-0.0143776
0.243714
-0.0152805
0.233762
-0.0158364
0.224264
-0.0162794
0.215323
-0.0167502
0.206861
-0.0171767
0.198713
-0.0174674
0.190867
-0.0176128
0.183349
-0.0175827
0.176118
-0.0173249
0.169152
-0.0168252
0.162386
-0.0161372
0.155835
-0.0153468
0.149506
-0.0145273
0.143402
-0.0136674
0.137454
-0.0127164
0.131642
-0.0113452
0.125586
-0.00921764
0.117154
-0.00553458
0.0999069
0.0534463
0.00328937
0.951609
0.00204866
0.947951
0.00120898
0.902781
0.000664037
0.857987
8.13015e-05
0.815862
-0.00029102
0.776001
-0.000802288
0.738518
-0.00121739
0.702842
-0.00151991
0.668989
-0.00186739
0.636895
-0.00234729
0.606445
-0.0029192
0.577595
-0.00353473
0.550204
-0.0041483
0.524232
-0.00465189
0.499531
-0.00491198
0.476103
-0.00508333
0.454035
-0.00541293
0.433214
-0.00602729
0.413633
-0.00680394
0.395096
-0.00763841
0.377476
-0.00846754
0.360614
-0.00924909
0.344701
-0.0100697
0.329561
-0.0109397
0.315278
-0.0119407
0.301994
-0.0130389
0.289312
-0.0140266
0.277055
-0.0146824
0.265354
-0.0150224
0.254329
-0.0152332
0.243924
-0.0156174
0.234146
-0.0162075
0.224854
-0.0167896
0.215905
-0.0171906
0.207262
-0.0174061
0.198929
-0.0175038
0.190965
-0.0175053
0.183351
-0.0174176
0.17603
-0.0172718
0.169006
-0.0170928
0.162207
-0.0168334
0.155575
-0.0164182
0.149091
-0.0157746
0.142758
-0.0149277
0.136608
-0.0139666
0.130681
-0.0124017
0.124021
-0.0101159
0.114868
-0.00595623
0.0957473
0.0474901
0.00324113
0.948368
0.001942
0.94925
0.000849195
0.903874
5.4744e-05
0.858781
-0.000859314
0.816776
-0.00152225
0.776664
-0.00217483
0.739171
-0.00279763
0.703465
-0.0033671
0.669559
-0.00377042
0.637298
-0.00405965
0.606734
-0.00423445
0.57777
-0.00445786
0.550427
-0.00477718
0.524551
-0.00525698
0.500011
-0.00598817
0.476834
-0.0067547
0.454801
-0.00738516
0.433845
-0.00786331
0.414111
-0.00836652
0.395599
-0.00895952
0.378069
-0.0096853
0.361339
-0.0104858
0.345502
-0.0112971
0.330372
-0.0119504
0.315932
-0.0124862
0.30253
-0.0130198
0.289846
-0.0137232
0.277759
-0.0146982
0.266329
-0.0158775
0.255508
-0.0170989
0.245146
-0.0180676
0.235115
-0.0187124
0.225499
-0.0191379
0.216331
-0.0194723
0.207596
-0.0197797
0.199236
-0.0200155
0.191201
-0.0201198
0.183455
-0.0200535
0.175964
-0.0197782
0.168731
-0.0192711
0.1617
-0.0185692
0.154873
-0.0177472
0.148269
-0.0168898
0.141901
-0.0159954
0.135713
-0.0150613
0.129747
-0.0134911
0.122451
-0.010931
0.112308
-0.0062641
0.0910804
0.041226
0.00245172
0.945916
0.00101769
0.950684
-0.000198433
0.90509
-0.00111826
0.859701
-0.00192799
0.817586
-0.00268231
0.777418
-0.00326993
0.739758
-0.00372472
0.70392
-0.00414336
0.669977
-0.00462146
0.637776
-0.00514448
0.607257
-0.00567458
0.5783
-0.00611306
0.550866
-0.0065105
0.524948
-0.00674394
0.500244
-0.00685693
0.476947
-0.00712723
0.455072
-0.00757335
0.434291
-0.00813213
0.41467
-0.00871338
0.39618
-0.009325
0.378681
-0.00996974
0.361984
-0.0106775
0.346209
-0.0115551
0.33125
-0.0125545
0.316931
-0.0136206
0.303596
-0.0147037
0.290929
-0.0156236
0.278678
-0.0162539
0.266959
-0.0166512
0.255905
-0.016907
0.245402
-0.0172277
0.235435
-0.0177048
0.225976
-0.0182707
0.216897
-0.0187851
0.208111
-0.0191315
0.199583
-0.0192969
0.191366
-0.0193374
0.183496
-0.0192914
0.175918
-0.0191832
0.168623
-0.0190386
0.161555
-0.0188336
0.154668
-0.0185146
0.14795
-0.0180005
0.141387
-0.0172748
0.134987
-0.0162939
0.128766
-0.0147057
0.120862
-0.0119748
0.109577
-0.00669007
0.0857957
0.0345359
0.00217766
0.943739
0.00064049
0.952221
-0.000672989
0.906404
-0.0019493
0.860978
-0.00296889
0.818605
-0.00381794
0.778267
-0.00447872
0.740419
-0.00504445
0.704486
-0.00544343
0.670376
-0.00562954
0.637962
-0.00568237
0.60731
-0.00575531
0.578373
-0.00589143
0.551002
-0.00612962
0.525187
-0.00658439
0.500699
-0.00704642
0.477409
-0.00744546
0.455471
-0.00779963
0.434645
-0.00817683
0.415047
-0.0086434
0.396647
-0.00923539
0.379273
-0.00992845
0.362677
-0.0105978
0.346879
-0.0112433
0.331895
-0.0118277
0.317516
-0.0123457
0.304114
-0.0129367
0.29152
-0.013731
0.279473
-0.014764
0.267992
-0.0159566
0.257098
-0.0172245
0.246669
-0.0184012
0.236612
-0.0193203
0.226895
-0.0199441
0.21752
-0.0203636
0.20853
-0.0207137
0.199933
-0.0210454
0.191698
-0.0212985
0.183749
-0.021396
0.176015
-0.021303
0.16853
-0.0209973
0.16125
-0.0204877
0.154159
-0.0198222
0.147284
-0.019115
0.14068
-0.0185093
0.134382
-0.0175084
0.127765
-0.0159645
0.119318
-0.0129596
0.106573
-0.00725417
0.0800903
0.0272817
0.00198675
0.941752
0.000125549
0.954082
-0.00132252
0.907852
-0.00272977
0.862385
-0.00367245
0.819548
-0.00453015
0.779125
-0.00510796
0.740997
-0.00545679
0.704835
-0.00581425
0.670734
-0.00620488
0.638353
-0.00650311
0.607608
-0.0065932
0.578463
-0.00661862
0.551027
-0.00649878
0.525067
-0.00638043
0.500581
-0.00642296
0.477451
-0.00656097
0.455609
-0.00684758
0.434932
-0.00715356
0.415353
-0.00746993
0.396963
-0.00783647
0.379639
-0.00840468
0.363245
-0.00917642
0.347651
-0.0101294
0.332848
-0.0112429
0.318629
-0.0124107
0.305281
-0.0135568
0.292666
-0.0145539
0.28047
-0.0153316
0.26877
-0.015923
0.257689
-0.0163953
0.247142
-0.0168095
0.237026
-0.0173384
0.227424
-0.0180262
0.218208
-0.0187549
0.209259
-0.0194041
0.200582
-0.0198733
0.192167
-0.0201639
0.184039
-0.0203556
0.176207
-0.0204873
0.168661
-0.0205715
0.161334
-0.0206093
0.154197
-0.0205693
0.147244
-0.0203634
0.140474
-0.0200012
0.13402
-0.0190227
0.126786
-0.0173275
0.117623
-0.0138233
0.103068
-0.00741426
0.0736813
0.0198675
0.0021882
0.939564
0.000153787
0.956116
-0.0014941
0.9095
-0.00307237
0.863963
-0.00419543
0.820671
-0.00511406
0.780044
-0.00583143
0.741714
-0.00623599
0.705239
-0.00631181
0.670809
-0.00617339
0.638214
-0.00609113
0.607526
-0.00597105
0.578343
-0.00583986
0.550896
-0.00579233
0.525019
-0.00571928
0.500508
-0.0056663
0.477398
-0.00561408
0.455557
-0.0056895
0.435007
-0.00595923
0.415623
-0.00634137
0.397345
-0.0067713
0.380069
-0.00723281
0.363707
-0.00771031
0.348128
-0.00822592
0.333364
-0.00880215
0.319205
-0.00942009
0.305899
-0.0101876
0.293434
-0.011213
0.281495
-0.0124667
0.270024
-0.0138681
0.259091
-0.0153297
0.248603
-0.0168059
0.238503
-0.0180934
0.228711
-0.0190979
0.219213
-0.0199041
0.210065
-0.0205671
0.201245
-0.0211764
0.192776
-0.0217662
0.184629
-0.022235
0.176676
-0.0225173
0.168943
-0.0226064
0.161423
-0.0224896
0.15408
-0.0221949
0.14695
-0.0218454
0.140124
-0.0215113
0.133686
-0.0204978
0.125773
-0.0185931
0.115719
-0.0143577
0.0988329
-0.00682184
0.0661454
0.0130456
0.00193999
0.937624
-0.00032084
0.958377
-0.00203553
0.911214
-0.00366184
0.865589
-0.0046874
0.821696
-0.00552475
0.780881
-0.00601577
0.742205
-0.0063761
0.705599
-0.00665987
0.671093
-0.00671499
0.63827
-0.00650073
0.607312
-0.00615559
0.577998
-0.00562386
0.550364
-0.0050877
0.524483
-0.00466674
0.500087
-0.00433117
0.477063
-0.004087
0.455312
-0.00384997
0.43477
-0.00370802
0.415481
-0.00371218
0.397349
-0.00397072
0.380328
-0.00451578
0.364252
-0.0052998
0.348912
-0.00631359
0.334377
-0.00751168
0.320403
-0.00877283
0.307161
-0.0100208
0.294682
-0.0111619
0.282636
-0.0121788
0.271041
-0.0130913
0.260003
-0.0139729
0.249485
-0.0148108
0.239341
-0.0157128
0.229613
-0.0167415
0.220241
-0.0177916
0.211115
-0.0188556
0.202309
-0.0198416
0.193762
-0.0206224
0.18541
-0.0212607
0.177314
-0.0218309
0.169514
-0.0223255
0.161918
-0.0227698
0.154524
-0.0231764
0.147356
-0.0235005
0.140448
-0.0232577
0.133443
-0.0223014
0.124817
-0.0198755
0.113293
-0.0145452
0.0935026
-0.00546362
0.0570639
0.00758201
0.00198687
0.935637
-0.000410121
0.960774
-0.00215977
0.912964
-0.00382981
0.867259
-0.00507391
0.822941
-0.0060375
0.781845
-0.00660549
0.742773
-0.00671742
0.705711
-0.0065833
0.670959
-0.00638045
0.638067
-0.00605697
0.606988
-0.00563202
0.577573
-0.00510727
0.549839
-0.00443561
0.523811
-0.00375838
0.499409
-0.00313348
0.476438
-0.00269167
0.454871
-0.00246302
0.434541
-0.00236012
0.415378
-0.00231367
0.397303
-0.00233718
0.380351
-0.00246452
0.364379
-0.00273704
0.349185
-0.00315919
0.3348
-0.00379433
0.321039
-0.00459233
0.307959
-0.00561237
0.295702
-0.00696627
0.28399
-0.00857884
0.272653
-0.0103494
0.261774
-0.0121837
0.251319
-0.01402
0.241177
-0.0157573
0.231351
-0.0173132
0.221797
-0.0187439
0.212546
-0.0199872
0.203552
-0.0210764
0.194851
-0.0221631
0.186496
-0.023189
0.17834
-0.0240366
0.170361
-0.0247041
0.162585
-0.0251388
0.154959
-0.0253179
0.147535
-0.0255762
0.140707
-0.0252688
0.133135
-0.0241791
0.123727
-0.0211775
0.110291
-0.0145422
0.0868673
-0.00412509
0.0466467
0.00345692
0.00181236
0.933824
-0.000715356
0.963302
-0.00268871
0.914937
-0.00461305
0.869184
-0.00588069
0.824208
-0.00676875
0.782733
-0.00732007
0.743324
-0.00768912
0.70608
-0.00761293
0.670883
-0.00713762
0.637591
-0.00644249
0.606293
-0.00561943
0.57675
-0.00473141
0.548951
-0.00378842
0.522868
-0.00279131
0.498412
-0.00178322
0.47543
-0.000783975
0.453871
8.26757e-05
0.433675
0.000669154
0.414792
0.000937878
0.397034
0.000893156
0.380396
0.000517117
0.364755
-0.000158032
0.34986
-0.00111058
0.335752
-0.00230832
0.322236
-0.00366788
0.309318
-0.00505651
0.29709
-0.00637001
0.285304
-0.00766825
0.273952
-0.00897712
0.263083
-0.0103545
0.252697
-0.0118175
0.24264
-0.0133339
0.232867
-0.0149102
0.223373
-0.0164879
0.214124
-0.0181169
0.205181
-0.0197763
0.196511
-0.0212519
0.187972
-0.0225433
0.179631
-0.0237533
0.171571
-0.0248455
0.163677
-0.0258653
0.155979
-0.0269053
0.148575
-0.0276736
0.141475
-0.0275085
0.13297
-0.0262181
0.122436
-0.0226378
0.106711
-0.0149242
0.0791537
-0.00300547
0.034728
0.00045145
0.00210318
0.931721
-0.000586823
0.965992
-0.00287127
0.917222
-0.0048923
0.871205
-0.00646002
0.825776
-0.00766544
0.783938
-0.0081612
0.74382
-0.00843793
0.706357
-0.00840063
0.670846
-0.00800809
0.637199
-0.00723021
0.605515
-0.00621163
0.575731
-0.00496273
0.547703
-0.00366147
0.521567
-0.00238613
0.497137
-0.00125825
0.474302
-0.000264822
0.452878
0.00065033
0.43276
0.00146816
0.413974
0.00213519
0.396367
0.00265424
0.379877
0.00293864
0.364471
0.00292
0.349878
0.00262645
0.336046
0.00201872
0.322844
0.00112045
0.310216
-0.00012223
0.298333
-0.00184546
0.287027
-0.00388524
0.275991
-0.00611808
0.265316
-0.00842827
0.255007
-0.0107526
0.244964
-0.013072
0.235186
-0.0153198
0.225621
-0.0174601
0.216264
-0.0194352
0.207156
-0.0212074
0.198283
-0.0229636
0.189728
-0.0246891
0.181357
-0.0262449
0.173127
-0.0276604
0.165093
-0.0288644
0.157183
-0.0299154
0.149626
-0.0305301
0.14209
-0.0303232
0.132764
-0.028709
0.120822
-0.0240254
0.102027
-0.0147483
0.0698766
-0.00218922
0.0221689
-0.00173777
0.00173995
0.929981
-0.0012093
0.968941
-0.00383137
0.919844
-0.00626066
0.873634
-0.00790415
0.827419
-0.00922182
0.785256
-0.00999987
0.744598
-0.0103265
0.706684
-0.010183
0.670702
-0.00968688
0.636703
-0.00879651
0.604625
-0.00764156
0.574576
-0.0061688
0.54623
-0.00439321
0.519792
-0.00243974
0.495183
-0.000456912
0.472319
0.00132872
0.451092
0.00279503
0.431293
0.00395135
0.412818
0.0047421
0.395576
0.00514306
0.379476
0.0051953
0.364419
0.00485935
0.350214
0.00416383
0.336741
0.00310463
0.323903
0.00177504
0.311546
0.000358843
0.299749
-0.00114877
0.288534
-0.00277581
0.277619
-0.00453447
0.267074
-0.00643683
0.256909
-0.00847856
0.247006
-0.0106396
0.237347
-0.0128943
0.227876
-0.0152241
0.218594
-0.0175871
0.209519
-0.020012
0.200708
-0.0222911
0.192007
-0.0244109
0.183477
-0.0264693
0.175185
-0.0283555
0.166979
-0.0301504
0.158978
-0.032074
0.15155
-0.033083
0.143099
-0.0332513
0.132932
-0.0313033
0.118874
-0.0250063
0.0957303
-0.0126317
0.057502
-0.00161575
0.011153
-0.00335352
0.00177704
0.928204
-0.00127776
0.971996
-0.00408636
0.922652
-0.00677776
0.876325
-0.00895675
0.829598
-0.0107788
0.787078
-0.0120142
0.745834
-0.0126438
0.707313
-0.012564
0.670622
-0.0119677
0.636106
-0.0109474
0.603605
-0.0095104
0.573139
-0.0078771
0.544596
-0.00605443
0.517969
-0.00412548
0.493255
-0.00205877
0.470252
1.95295e-05
0.449014
0.00198626
0.429327
0.00375543
0.411048
0.00534387
0.393988
0.00660285
0.378217
0.00749531
0.363526
0.00796601
0.349744
0.00800457
0.336703
0.00759629
0.324312
0.00668083
0.312461
0.00523159
0.301199
0.0033521
0.290414
0.00101235
0.279958
-0.00162874
0.269715
-0.00445792
0.259738
-0.00745795
0.250006
-0.0104831
0.240373
-0.0134597
0.230853
-0.0163088
0.221443
-0.0190667
0.212277
-0.0216696
0.203311
-0.0242645
0.194602
-0.0268173
0.186029
-0.0291885
0.177557
-0.0315184
0.169309
-0.0337759
0.161235
-0.0356327
0.153407
-0.0365558
0.144022
-0.0364153
0.132791
-0.0334111
0.11587
-0.0248837
0.0872029
-0.00948766
0.042106
-0.00157741
0.00324272
-0.00493093
0.00145642
0.926748
-0.00176447
0.975217
-0.00510848
0.925996
-0.00830334
0.87952
-0.0109506
0.832246
-0.0132078
0.789335
-0.0147205
0.747346
-0.0157729
0.708366
-0.0161353
0.670985
-0.0157613
0.635733
-0.0147741
0.602618
-0.0131027
0.571468
-0.0108974
0.542391
-0.00829788
0.515369
-0.00553723
0.490494
-0.00271112
0.467426
6.89228e-05
0.446234
0.00258218
0.426813
0.00467551
0.408955
0.00635546
0.392308
0.00762488
0.376948
0.00842588
0.362725
0.00869329
0.349476
0.00846521
0.336931
0.00775487
0.325022
0.00666088
0.313555
0.00531964
0.30254
0.00365708
0.292077
0.00183452
0.281781
-0.000249928
0.2718
-0.00264361
0.262132
-0.00513933
0.252502
-0.0078841
0.243117
-0.0108787
0.233847
-0.0140816
0.224646
-0.0173177
0.215513
-0.0205701
0.206563
-0.0237095
0.197742
-0.0267466
0.189067
-0.0298204
0.18063
-0.0327238
0.172212
-0.0355824
0.164094
-0.037815
0.155639
-0.0392884
0.145495
-0.0387857
0.132289
-0.0341184
0.111203
-0.0231282
0.0762127
-0.00621667
0.0251944
-0.000954318
-0.00201963
-0.00588525
0.00168083
0.925067
-0.00125701
0.978155
-0.00499058
0.92973
-0.00844377
0.882974
-0.0116268
0.835429
-0.0146289
0.792337
-0.0168405
0.749558
-0.0184751
0.71
-0.0193849
0.671894
-0.0194674
0.635815
-0.0188192
0.601969
-0.0174909
0.57014
-0.0155298
0.54043
-0.0130353
0.512875
-0.0101133
0.487572
-0.00697326
0.464286
-0.00364801
0.442909
-0.000284275
0.42345
0.00290661
0.405764
0.00575569
0.389459
0.00816744
0.374536
0.0100754
0.360817
0.0114258
0.348126
0.0121443
0.336212
0.0122108
0.324955
0.0115328
0.314233
0.0101534
0.303919
0.00819728
0.294033
0.00558358
0.284395
0.0026077
0.274776
-0.000690145
0.26543
-0.00438418
0.256196
-0.00812508
0.246858
-0.0117739
0.237496
-0.0153036
0.228175
-0.0188251
0.219035
-0.0223067
0.210045
-0.0258355
0.20127
-0.0293503
0.192581
-0.0325935
0.183874
-0.0358565
0.175475
-0.0392161
0.167453
-0.041556
0.157979
-0.0426904
0.14663
-0.0409718
0.13057
-0.0335539
0.103785
-0.0181017
0.0607605
-0.00359841
0.0106912
-0.00014607
-0.00547197
-0.00603132
0.00151518
0.923552
-0.00142021
0.98109
-0.00577671
0.934087
-0.00964421
0.886841
-0.013569
0.839353
-0.0171517
0.79592
-0.0200808
0.752487
-0.0224373
0.712357
-0.0239922
0.673449
-0.0246556
0.636478
-0.0242513
0.601565
-0.0228673
0.568756
-0.020586
0.538149
-0.0175832
0.509872
-0.0140101
0.483999
-0.0101742
0.46045
-0.00628316
0.439018
-0.00249443
0.419661
0.00104757
0.402222
0.00411765
0.386389
0.00670676
0.371947
0.00867107
0.358853
0.00997693
0.34682
0.0105908
0.335598
0.010582
0.324964
0.010065
0.31475
0.0090396
0.304945
0.00758993
0.295482
0.00569082
0.286294
0.00334176
0.277125
0.000677613
0.268094
-0.0022996
0.259173
-0.00562708
0.250186
-0.00939484
0.241264
-0.0134615
0.232242
-0.0176143
0.223188
-0.0217603
0.214191
-0.0258134
0.205324
-0.0298006
0.196569
-0.0339948
0.188068
-0.0379933
0.179474
-0.041432
0.170892
-0.0439562
0.160503
-0.0451209
0.147794
-0.0421927
0.127642
-0.0322186
0.0938107
-0.012904
0.0414458
-0.00299992
0.000787118
-0.000435318
-0.00803657
-0.00646664
0.00204817
0.921504
-0.000684257
0.983823
-0.00546568
0.938868
-0.00931343
0.890689
-0.0137739
0.843814
-0.0178581
0.800004
-0.0216204
0.756249
-0.024929
0.715665
-0.0273909
0.675911
-0.0290458
0.638133
-0.0296882
0.602207
-0.0292505
0.568318
-0.0277398
0.536638
-0.0251787
0.507311
-0.021665
0.480485
-0.0173972
0.456182
-0.0126205
0.434241
-0.00761003
0.41465
-0.00266603
0.397278
0.00195663
0.381766
0.00602328
0.36788
0.00947294
0.355403
0.0121818
0.344111
0.0140297
0.33375
0.0149451
0.324049
0.0148017
0.314894
0.0137127
0.306034
0.011756
0.297439
0.00914996
0.2889
0.00589973
0.280375
0.00213799
0.271856
-0.0019452
0.263256
-0.00630302
0.254544
-0.0106012
0.245562
-0.0148458
0.236487
-0.0191373
0.227479
-0.0234685
0.218522
-0.027896
0.209751
-0.0323791
0.201052
-0.0365597
0.192248
-0.04097
0.183884
-0.044856
0.174778
-0.0475853
0.163232
-0.0472882
0.147497
-0.0416876
0.122041
-0.0277383
0.0798613
-0.00811072
0.0218182
-0.00208063
-0.00524298
-0.000293854
-0.00982335
-0.00676049
0.00170769
0.919796
-0.00062327
0.986154
-0.00576654
0.944011
-0.0096316
0.894554
-0.0147485
0.848931
-0.019441
0.804696
-0.0241053
0.760914
-0.0283617
0.719922
-0.0317204
0.67927
-0.0340723
0.640485
-0.0351667
0.603302
-0.0349934
0.568145
-0.0335987
0.535243
-0.031007
0.504719
-0.0273642
0.476842
-0.0229235
0.451742
-0.0179765
0.429294
-0.0127663
0.40944
-0.00750965
0.392021
-0.00253977
0.376796
0.00192254
0.363418
0.00561729
0.351709
0.00851477
0.341214
0.0105704
0.331695
0.0118378
0.322781
0.0124099
0.314322
0.0122781
0.306165
0.0113719
0.298345
0.0096511
0.29062
0.00734816
0.282678
0.00440227
0.274802
0.000884789
0.266773
-0.00306474
0.258493
-0.00749136
0.249989
-0.0123003
0.241296
-0.0172218
0.2324
-0.0222282
0.223528
-0.0271393
0.214662
-0.031977
0.205889
-0.0371914
0.197463
-0.0423484
0.189041
-0.0461323
0.178562
-0.0486431
0.165743
-0.0476418
0.146496
-0.039316
0.113715
-0.0201473
0.0606927
-0.00527067
0.00694153
-0.00162943
-0.00888422
-0.000266557
-0.0111862
-0.00702705
0.00184384
0.917952
-6.13634e-05
0.988059
-0.00525128
0.949201
-0.00895503
0.898258
-0.0141154
0.854091
-0.0190996
0.809681
-0.02449
0.766304
-0.0298429
0.725275
-0.0347316
0.684159
-0.0388591
0.644613
-0.0417529
0.606196
-0.0430829
0.569475
-0.0428082
0.534969
-0.040948
0.502859
-0.037505
0.473399
-0.0326499
0.446887
-0.0266857
0.42333
-0.0200679
0.402822
-0.0131917
0.385145
-0.00639323
0.369998
1.66586e-05
0.357008
0.00563224
0.346093
0.0102608
0.336585
0.0137817
0.328174
0.0159892
0.320574
0.0167034
0.313608
0.0162299
0.306639
0.0149622
0.299613
0.0126338
0.292949
0.00941399
0.285898
0.00558631
0.278629
0.00123132
0.271128
-0.0035241
0.263249
-0.0085268
0.254991
-0.0135753
0.246344
-0.0187442
0.237569
-0.0238684
0.228653
-0.0290846
0.219878
-0.0345031
0.211308
-0.0396987
0.202658
-0.0448129
0.194155
-0.0490242
0.182773
-0.0508167
0.167536
-0.0475325
0.143212
-0.0363572
0.10254
-0.0137478
0.0380833
-0.00465199
-0.00215427
-0.00230669
-0.0112295
-0.000831994
-0.0126609
-0.00785904
0.000218035
0.917734
-0.000331281
0.988608
-0.00523545
0.954105
-0.00896616
0.901988
-0.0141696
0.859295
-0.019466
0.814977
-0.0255034
0.772342
-0.0313312
0.731102
-0.0368414
0.689669
-0.0417296
0.649501
-0.0455438
0.61001
-0.0479236
0.571854
-0.0485076
0.535553
-0.0474083
0.50176
-0.0446663
0.470657
-0.0404328
0.442653
-0.0349305
0.417827
-0.028522
0.396414
-0.0215878
0.378211
-0.0145791
0.362989
-0.00785615
0.350285
-0.00176717
0.340004
0.00343754
0.33138
0.00771829
0.323893
0.011084
0.317208
0.0136392
0.311052
0.0147486
0.305529
0.0144455
0.299916
0.0133756
0.294019
0.0112024
0.288071
0.00810958
0.281722
0.00427564
0.274962
-0.000192498
0.267717
-0.00522179
0.260021
-0.0107972
0.25192
-0.0165386
0.243311
-0.0224139
0.234528
-0.028152
0.225616
-0.0338047
0.216961
-0.0399914
0.208845
-0.0455896
0.199753
-0.0499892
0.187173
-0.0515018
0.169048
-0.0456466
0.137356
-0.0292871
0.0861807
-0.00920324
0.0179994
-0.00392441
-0.00743309
-0.00219235
-0.0129616
-0.00106065
-0.0137926
-0.00891969
0.00203958
0.915694
0.00113463
0.989513
-0.00386429
0.959104
-0.00801203
0.906136
-0.0124222
0.863705
-0.0177071
0.820262
-0.0240904
0.778725
-0.0312762
0.738288
-0.0387357
0.697128
-0.0458196
0.656585
-0.0519288
0.616119
-0.0564515
0.576377
-0.0589077
0.538009
-0.0590928
0.501945
-0.056855
0.46842
-0.0522522
0.43805
-0.0456822
0.411257
-0.0377279
0.38846
-0.0289166
0.3694
-0.0197098
0.353782
-0.0107043
0.34128
-0.00231113
0.331611
0.00491724
0.324152
0.0105588
0.318252
0.0142915
0.313476
0.0165039
0.30884
0.0178775
0.304156
0.0176564
0.300137
0.0158721
0.295803
0.0131538
0.290789
0.00940587
0.28547
0.00482167
0.279547
-0.000417756
0.272956
-0.00601973