/*--------------------------------*- C++ -*----------------------------------*\
| =========                 |                                                 |
| \\      /  F ield         | OpenFOAM: The Open Source CFD Toolbox           |
|  \\    /   O peration     | Version:  v1912                                 |
|   \\  /    A nd           | Website:  www.openfoam.com                      |
|    \\/     M anipulation  |                                                 |
\*---------------------------------------------------------------------------*/
FoamFile
{
    version     2.0;
    format      ascii;
    class       volVectorField;
    location    "0.47";
    object      U;
}
// * * * * * * * * * * * * * * * * * * * * * * * * * * * * * * * * * * * * * //

dimensions      [0 1 -1 0 0 0 0];


internalField   nonuniform List<vector> 
6600
(
(39.8424 -0.0458256 0)
(40.0981 -0.0463837 2.69354e-20)
(40.1578 0.057283 1.89455e-18)
(40.2108 0.170208 0)
(40.2595 0.274214 2.33812e-18)
(40.3173 0.37136 7.95912e-20)
(40.3858 0.477146 -8.83737e-20)
(40.4675 0.571502 -9.69696e-20)
(40.5381 0.681491 1.96078e-18)
(40.6086 0.791992 -1.90351e-19)
(40.6697 0.911881 0)
(40.7431 1.01994 -2.3508e-18)
(40.7962 1.14245 0)
(40.8445 1.26902 -2.54233e-18)
(40.904 1.39799 -3.34628e-18)
(40.9677 1.55086 -1.73775e-18)
(41.0544 1.70043 0)
(41.1429 1.88141 0)
(41.1975 2.10771 2.59911e-18)
(41.2624 2.384 -2.34059e-18)
(41.3203 2.71319 -3.37069e-19)
(41.3505 3.10886 -1.16472e-18)
(41.4188 3.48883 -2.05302e-18)
(41.5232 3.8862 4.17334e-19)
(41.5844 4.33682 1.49566e-18)
(41.6173 4.82407 0)
(41.6679 5.34204 3.21002e-18)
(41.7321 5.91631 0)
(41.825 6.5721 -1.25815e-18)
(41.9374 7.32965 -6.7175e-19)
(42.0805 8.18856 -4.4284e-19)
(42.2406 9.12457 -5.79231e-19)
(42.3569 10.0983 -2.80395e-19)
(42.4368 11.1194 2.04238e-19)
(42.4945 12.2245 4.90177e-19)
(42.5667 13.4105 -2.59787e-19)
(42.6732 14.7167 -1.40341e-19)
(42.8224 16.1391 -1.20816e-18)
(43.0054 17.6569 1.23021e-18)
(43.2047 19.2658 -1.68366e-18)
(43.413 20.9714 -1.26883e-18)
(43.6357 22.8019 0)
(43.8576 24.7461 1.92742e-18)
(44.0966 26.8578 -4.14472e-18)
(44.3501 29.0734 0)
(44.6613 31.5099 -4.84179e-18)
(44.8921 33.8496 -1.14305e-17)
(45.625 36.7368 0)
(44.2585 38.425 0)
(33.6292 31.9145 -5.44308e-18)
(39.7369 -0.0398468 1.57939e-18)
(40.1834 -0.0608422 -1.68755e-18)
(40.2421 0.0458179 0)
(40.3012 0.160875 -3.20783e-20)
(40.3605 0.271877 2.26501e-18)
(40.4197 0.380297 7.75732e-20)
(40.4823 0.495162 -7.74848e-22)
(40.5495 0.59769 -9.48476e-20)
(40.6255 0.699678 0)
(40.7093 0.790931 -3.54102e-18)
(40.763 0.897743 -1.26496e-19)
(40.8347 0.99768 2.15024e-18)
(40.9168 1.11334 2.20568e-18)
(40.9883 1.24826 1.451e-18)
(41.0584 1.40147 2.80283e-21)
(41.1332 1.58572 2.01369e-19)
(41.1891 1.81485 -1.67354e-18)
(41.276 2.03793 0)
(41.3469 2.29074 0)
(41.3968 2.55746 2.36029e-18)
(41.4745 2.80867 2.98705e-19)
(41.5583 3.13585 -1.54484e-18)
(41.6328 3.53249 -1.28553e-18)
(41.771 3.95828 -1.34954e-18)
(41.9248 4.43517 -1.0221e-18)
(42.05 4.9789 -4.21413e-19)
(42.188 5.58319 -5.47198e-19)
(42.3288 6.21988 -4.44643e-19)
(42.4655 6.88741 1.19457e-18)
(42.5963 7.60444 3.80775e-19)
(42.7193 8.35911 -1.14567e-18)
(42.8269 9.15417 8.47915e-19)
(42.9723 10.0436 8.33916e-22)
(43.1452 11.0408 -2.50455e-19)
(43.388 12.1365 5.62296e-19)
(43.6786 13.3436 2.65736e-19)
(43.9569 14.6515 -1.49259e-18)
(44.2322 16.0347 2.07524e-19)
(44.512 17.5059 1.23076e-18)
(44.8144 19.1102 1.62158e-18)
(45.1439 20.8397 0)
(45.4949 22.7058 0)
(45.8417 24.6697 2.64555e-18)
(46.2692 26.7619 -3.00835e-18)
(46.7869 28.9365 -8.60856e-18)
(47.3688 31.3322 5.00081e-18)
(47.8517 33.6213 1.44426e-17)
(48.7662 36.3228 0)
(47.5407 37.5058 -1.28697e-17)
(35.311 30.9046 5.9179e-18)
(39.6713 -0.0258912 -5.26957e-20)
(40.2875 -0.0701947 1.72299e-18)
(40.3273 0.0789717 1.8017e-18)
(40.3836 0.180129 -4.40303e-22)
(40.4429 0.282036 -1.88524e-19)
(40.512 0.386687 7.59334e-20)
(40.5892 0.488446 0)
(40.6643 0.589551 0)
(40.7349 0.701247 0)
(40.8201 0.80621 1.90507e-18)
(40.8927 0.914718 -1.20781e-19)
(40.9488 1.02987 -2.16461e-18)
(41.0074 1.15941 -1.1239e-18)
(41.084 1.29172 2.34291e-18)
(41.1575 1.44917 1.30673e-18)
(41.257 1.60224 -1.83565e-19)
(41.3576 1.79355 3.41721e-18)
(41.4639 2.01972 -1.64143e-18)
(41.5979 2.27343 -1.75614e-18)
(41.702 2.61009 0)
(41.8051 2.98765 -9.81295e-19)
(41.907 3.3448 1.22668e-18)
(42.0005 3.74241 1.30095e-18)
(42.1245 4.17095 1.36658e-18)
(42.27 4.62822 1.12285e-18)
(42.3924 5.11424 -3.44918e-20)
(42.5214 5.66841 -1.62591e-19)
(42.7005 6.2969 -2.70517e-19)
(42.8931 6.97808 -1.38138e-19)
(43.1258 7.73497 5.21699e-19)
(43.3911 8.60196 7.08192e-20)
(43.695 9.5503 0)
(43.9636 10.5241 5.03815e-19)
(44.237 11.5604 -3.22666e-19)
(44.502 12.6887 -8.75965e-19)
(44.7613 13.8705 -2.32052e-18)
(45.0442 15.1303 3.94659e-19)
(45.3898 16.5004 1.25646e-18)
(45.8107 17.9708 6.86681e-19)
(46.2964 19.5194 0)
(46.8041 21.1445 4.11506e-18)
(47.3655 22.8588 0)
(47.9798 24.6766 0)
(48.6378 26.6312 8.28118e-18)
(49.3427 28.6623 4.86192e-18)
(50.1192 30.9022 -7.54115e-18)
(50.8903 33.1269 -8.12383e-18)
(51.9928 35.5873 0)
(50.7977 36.3045 -7.57675e-18)
(36.8839 29.3877 8.28402e-18)
(39.6075 -0.00146688 -1.53754e-18)
(40.4218 -0.0617646 1.2522e-20)
(40.4575 0.102297 -1.85022e-18)
(40.5216 0.188059 -1.85553e-18)
(40.5767 0.295568 -2.13031e-18)
(40.6319 0.403422 -1.09169e-18)
(40.6979 0.509585 -7.97916e-20)
(40.7712 0.603897 0)
(40.8524 0.698028 1.46764e-18)
(40.9322 0.800348 1.70135e-18)
(41.017 0.907655 -1.13994e-19)
(41.1066 1.02567 -1.21545e-19)
(41.1998 1.16801 -9.7741e-19)
(41.2892 1.31687 -2.51691e-19)
(41.3727 1.50627 2.95066e-20)
(41.4677 1.72254 -1.66074e-19)
(41.5712 1.94671 -6.86891e-23)
(41.6703 2.19554 1.84506e-18)
(41.7838 2.44461 2.31481e-18)
(41.8969 2.69655 0)
(42.0353 3.01293 1.91877e-19)
(42.1732 3.36584 0)
(42.3352 3.78022 0)
(42.533 4.23448 -2.14849e-19)
(42.7585 4.74606 5.74723e-19)
(42.9922 5.30288 6.05409e-19)
(43.1999 5.89833 -9.7102e-20)
(43.4331 6.53748 4.00469e-19)
(43.6776 7.23751 0)
(43.9428 7.97286 0)
(44.19 8.71265 -3.92927e-19)
(44.4354 9.49503 0)
(44.7289 10.3801 -5.6561e-20)
(45.0631 11.3711 -1.08731e-18)
(45.4607 12.4411 1.90938e-18)
(45.9507 13.6066 3.01311e-18)
(46.4836 14.8671 -4.82766e-18)
(47.0325 16.1933 1.86805e-18)
(47.5929 17.6034 6.36806e-19)
(48.1725 19.1167 7.46173e-19)
(48.8095 20.7458 -9.52956e-18)
(49.4971 22.4843 0)
(50.2063 24.2865 0)
(51.0176 26.189 -4.70452e-18)
(51.9699 28.1346 -7.13982e-18)
(52.9981 30.256 -1.26051e-18)
(53.9787 32.3782 -1.12948e-17)
(55.0739 34.5581 1.24799e-17)
(53.664 34.7991 1.66029e-17)
(38.0745 27.5682 0)
(39.553 0.020484 -5.53267e-21)
(40.5472 -0.0680391 1.50342e-18)
(40.5709 0.136155 1.63143e-18)
(40.6384 0.20247 1.92225e-18)
(40.6936 0.303997 0)
(40.7622 0.39717 6.40172e-20)
(40.8278 0.499525 0)
(40.899 0.598346 -8.09565e-20)
(40.988 0.701004 -2.75885e-18)
(41.0794 0.811149 -1.70293e-18)
(41.1605 0.929428 1.06328e-19)
(41.2364 1.06649 1.11819e-19)
(41.3168 1.21712 -1.24444e-19)
(41.4201 1.37055 -1.11104e-18)
(41.5328 1.53948 -2.38927e-18)
(41.6536 1.71466 1.53297e-19)
(41.7861 1.92372 -2.53014e-18)
(41.955 2.16894 1.60268e-19)
(42.1387 2.47258 -7.73433e-19)
(42.3029 2.82131 -3.50308e-19)
(42.4548 3.17976 9.93914e-19)
(42.6218 3.55238 0)
(42.7668 3.95792 0)
(42.9548 4.37467 -1.89884e-19)
(43.181 4.82963 -3.39546e-19)
(43.4057 5.34095 2.1131e-20)
(43.6474 5.91011 -2.20576e-20)
(43.9229 6.52407 0)
(44.2429 7.18672 -1.29958e-19)
(44.6006 7.94824 1.44761e-19)
(45.0226 8.82181 3.99377e-19)
(45.4801 9.75706 1.57132e-18)
(45.914 10.7062 -5.47594e-19)
(46.3861 11.7047 9.55211e-19)
(46.888 12.801 -1.06294e-18)
(47.3801 13.959 0)
(47.868 15.1599 1.81479e-18)
(48.4091 16.4346 6.08471e-18)
(49.055 17.8052 -3.33026e-18)
(49.8242 19.2393 -4.18378e-18)
(50.6504 20.7204 5.44028e-18)
(51.5391 22.262 0)
(52.5206 23.8742 0)
(53.551 25.5854 -6.70338e-18)
(54.6364 27.3464 1.47782e-17)
(55.7887 29.2804 4.02082e-18)
(56.9846 31.3184 6.6057e-18)
(58.0924 33.1992 -1.45124e-17)
(56.3697 33.0379 1.02494e-18)
(38.9098 25.4803 -2.1889e-17)
(39.5059 0.0283383 1.34812e-18)
(40.6766 -0.0688917 -9.05911e-20)
(40.7014 0.150037 -1.66309e-18)
(40.7739 0.188319 8.44473e-19)
(40.8098 0.304528 0)
(40.8647 0.395897 1.10402e-18)
(40.9369 0.484159 -3.56773e-20)
(41.0172 0.57524 -1.17857e-18)
(41.1039 0.677462 1.38026e-18)
(41.1985 0.788388 0)
(41.3056 0.905129 9.49386e-20)
(41.4222 1.04282 6.80759e-19)
(41.5267 1.20138 -9.42733e-19)
(41.646 1.38446 1.20475e-19)
(41.7802 1.59893 1.18205e-18)
(41.918 1.82871 -1.33312e-19)
(42.0595 2.06156 8.19369e-19)
(42.1897 2.31191 -1.41546e-19)
(42.3668 2.54258 1.26294e-19)
(42.5644 2.81456 2.87807e-19)
(42.7653 3.14272 3.18727e-19)
(43.0103 3.52234 1.57723e-20)
(43.2527 3.95221 8.06745e-20)
(43.502 4.42703 1.47901e-19)
(43.8233 4.91928 0)
(44.1527 5.4511 -1.35037e-21)
(44.4715 6.03119 -1.06941e-19)
(44.8085 6.67416 -5.62444e-20)
(45.1827 7.36419 -1.28406e-19)
(45.5789 8.06544 -2.96527e-19)
(45.9578 8.763 1.15246e-18)
(46.3672 9.51392 -1.09708e-18)
(46.8466 10.3833 0)
(47.3568 11.3478 0)
(47.9176 12.354 0)
(48.5754 13.4224 0)
(49.3342 14.5791 4.47161e-18)
(50.1718 15.8047 -8.64073e-18)
(51.0313 17.0975 0)
(51.8905 18.4645 3.03175e-20)
(52.7998 19.9134 -5.15392e-19)
(53.7779 21.4471 -9.95973e-18)
(54.7929 23.0191 5.52321e-18)
(55.9094 24.6461 0)
(57.1917 26.2726 4.95065e-18)
(58.5531 28.0458 -1.76912e-17)
(59.8689 29.9409 1.26896e-17)
(60.8035 31.553 9.06684e-18)
(58.5194 30.9563 3.27646e-17)
(39.2628 23.098 -2.45244e-17)
(39.4518 0.0350621 -1.34635e-18)
(40.8017 -0.0820814 -2.75214e-18)
(40.8213 0.160105 2.34356e-20)
(40.8916 0.179392 -8.478e-19)
(40.9341 0.289499 8.33509e-19)
(40.994 0.368081 -2.99234e-20)
(41.0564 0.464179 1.04025e-18)
(41.1401 0.562196 1.18329e-18)
(41.238 0.667897 1.20276e-18)
(41.3263 0.787814 -4.18033e-20)
(41.417 0.916711 -6.61901e-19)
(41.5299 1.06026 -9.22237e-20)
(41.6459 1.20578 8.38958e-19)
(41.7737 1.36922 0)
(41.9311 1.5314 0)
(42.0894 1.73998 5.08347e-20)
(42.3032 1.95858 7.96065e-19)
(42.5244 2.24205 0)
(42.7508 2.56069 4.2542e-20)
(42.9809 2.88771 -4.7945e-19)
(43.1972 3.22755 -3.5227e-19)
(43.4308 3.58132 -2.70595e-20)
(43.692 3.95404 0)
(43.955 4.38628 1.0005e-20)
(44.2704 4.85978 8.41366e-20)
(44.6293 5.36133 -9.38605e-20)
(44.9909 5.90206 0)
(45.3778 6.47436 0)
(45.8153 7.09969 1.33789e-19)
(46.3117 7.83569 7.22507e-19)
(46.9041 8.68137 -1.92204e-18)
(47.5066 9.57165 8.39644e-19)
(48.11 10.4567 1.3085e-18)
(48.7708 11.3699 -3.1611e-18)
(49.4964 12.3727 5.24352e-18)
(50.2351 13.4499 1.64822e-18)
(50.9566 14.5545 -3.06119e-18)
(51.6915 15.695 3.92994e-18)
(52.525 16.903 -5.84782e-18)
(53.5367 18.1641 5.16299e-20)
(54.6387 19.4479 -5.81857e-19)
(55.7885 20.7546 5.1034e-18)
(57.0483 22.0909 7.24691e-18)
(58.3642 23.4958 -8.05105e-18)
(59.719 24.9174 5.00374e-18)
(61.1135 26.484 0)
(62.5481 28.266 7.57928e-18)
(63.3737 29.5702 1.09988e-17)
(60.4316 28.6256 -2.28796e-17)
(39.1122 20.4556 -7.18944e-18)
(39.3931 0.0423512 1.18015e-18)
(40.9158 -0.0863801 1.32435e-18)
(40.9351 0.164068 1.11829e-20)
(41.0149 0.165202 -7.28659e-19)
(41.0392 0.291898 -1.66157e-18)
(41.0986 0.358188 8.82512e-19)
(41.1749 0.442998 -1.96079e-18)
(41.2594 0.542901 4.92149e-19)
(41.36 0.651818 -1.16967e-18)
(41.4717 0.765748 -5.89399e-19)
(41.6025 0.886059 1.32234e-18)
(41.7371 1.02671 -7.82579e-19)
(41.8835 1.18544 -6.10448e-19)
(42.0341 1.37834 4.22061e-21)
(42.2074 1.57725 -2.55787e-19)
(42.3725 1.79302 2.84222e-19)
(42.5351 2.01436 -3.72899e-19)
(42.7447 2.2279 0)
(42.9958 2.4611 0)
(43.2863 2.74648 0)
(43.5832 3.08233 7.63191e-21)
(43.8927 3.45837 -8.28925e-21)
(44.2269 3.86351 2.17184e-19)
(44.5805 4.29761 6.79438e-20)
(44.9813 4.76147 0)
(45.4297 5.27172 0)
(45.883 5.83617 -6.50936e-19)
(46.3475 6.4571 4.22186e-19)
(46.8554 7.101 -1.50895e-19)
(47.3907 7.73306 1.82682e-19)
(47.9025 8.35688 1.43993e-19)
(48.481 9.03842 1.50447e-18)
(49.1333 9.84171 -8.19089e-19)
(49.8414 10.7378 3.04363e-18)
(50.5829 11.6554 -2.2825e-18)
(51.3865 12.587 -1.22067e-18)
(52.3161 13.5848 2.74897e-19)
(53.3902 14.651 2.40387e-18)
(54.522 15.7658 2.60369e-18)
(55.6181 16.9286 3.79741e-18)
(56.7282 18.1409 -5.65044e-19)
(57.9282 19.4187 6.62046e-18)
(59.1589 20.7189 -7.36439e-18)
(60.4727 22.0288 0)
(61.9555 23.2992 0)
(63.5309 24.6936 0)
(65.0049 26.2766 0)
(65.4961 27.3295 0)
(61.602 26.0221 -1.34764e-17)
(38.3096 17.5896 2.20865e-17)
(39.3265 0.031308 -1.18256e-18)
(41.016 -0.104907 0)
(41.053 0.142295 0)
(41.1311 0.132974 7.41296e-19)
(41.1569 0.269179 7.87357e-19)
(41.2261 0.337754 -8.8241e-19)
(41.3042 0.438726 9.50366e-19)
(41.402 0.540753 -4.93719e-19)
(41.5079 0.65026 4.61701e-19)
(41.6102 0.770929 5.86698e-19)
(41.727 0.901413 -5.84584e-19)
(41.871 1.02912 4.6115e-19)
(42.0215 1.16304 8.6165e-19)
(42.1833 1.3042 0)
(42.3746 1.47145 3.02771e-19)
(42.6142 1.65148 -3.11013e-19)
(42.8627 1.8843 9.04469e-21)
(43.1102 2.1589 -4.17271e-20)
(43.378 2.42957 -3.93421e-20)
(43.6769 2.71516 0)
(43.9976 3.00518 0)
(44.3114 3.32992 -3.12214e-19)
(44.6602 3.67973 1.91948e-19)
(45.0145 4.08957 6.78368e-19)
(45.4279 4.52278 2.26177e-19)
(45.9025 4.98347 -8.94112e-19)
(46.3967 5.46783 1.51495e-18)
(46.9153 5.98063 -1.68321e-18)
(47.4827 6.5593 9.7773e-19)
(48.1257 7.23936 -8.72742e-19)
(48.8777 8.01881 5.2391e-19)
(49.6356 8.82823 -1.855e-18)
(50.4178 9.61332 1.12503e-18)
(51.2344 10.4126 -2.15924e-18)
(52.1291 11.2718 0)
(53.0759 12.2035 -1.99069e-18)
(54.0237 13.163 -2.17372e-18)
(54.94 14.1362 3.589e-19)
(55.9043 15.1418 4.27556e-18)
(57.0712 16.179 -4.33857e-18)
(58.3799 17.223 -5.35242e-19)
(59.7052 18.2646 -7.40374e-18)
(61.1433 19.3008 1.73566e-17)
(62.6526 20.3825 1.04086e-18)
(64.1774 21.4508 1.2417e-18)
(65.691 22.6261 -6.99309e-18)
(67.1526 24.0528 0)
(67.4026 24.7811 1.19403e-17)
(62.4338 23.2351 -6.39261e-18)
(36.859 14.5981 0)
(39.2582 0.0138522 3.9618e-21)
(41.1239 -0.0999856 -1.24628e-22)
(41.1602 0.135015 -5.84054e-19)
(41.233 0.121756 0)
(41.252 0.260501 -1.06152e-20)
(41.3387 0.316305 -3.36769e-19)
(41.424 0.422329 0)
(41.5278 0.519352 3.86448e-19)
(41.6528 0.620032 -4.88927e-19)
(41.7967 0.725118 2.88118e-20)
(41.9411 0.845119 4.04971e-19)
(42.1038 0.981241 -2.76687e-19)
(42.2875 1.13325 -2.74774e-19)
(42.486 1.29936 0)
(42.6766 1.47229 0)
(42.8718 1.65338 0)
(43.1163 1.80874 6.65781e-21)
(43.3903 2.00458 4.05955e-20)
(43.7136 2.22159 1.82411e-19)
(44.0573 2.49241 -4.83485e-20)
(44.4404 2.78066 1.31081e-19)
(44.8329 3.11247 2.2811e-19)
(45.2687 3.45257 -1.14848e-18)
(45.7065 3.82112 -1.14395e-18)
(46.1871 4.22587 0)
(46.7412 4.67721 8.46737e-19)
(47.3242 5.18968 -2.15723e-18)
(47.9135 5.7505 1.48343e-18)
(48.5543 6.31359 -8.23452e-19)
(49.2288 6.86088 4.93061e-19)
(49.8828 7.39749 -7.20387e-19)
(50.6011 7.97678 2.63579e-18)
(51.3885 8.65795 -3.16573e-18)
(52.2667 9.411 4.18318e-18)
(53.1863 10.2022 1.81772e-18)
(54.138 10.9923 -4.30101e-18)
(55.1822 11.8132 5.34255e-18)
(56.4028 12.6776 -3.5152e-18)
(57.7438 13.5769 -2.10141e-21)
(59.0329 14.5033 0)
(60.2646 15.4569 6.02449e-18)
(61.607 16.4491 4.06513e-18)
(62.9639 17.4633 4.48092e-19)
(64.3738 18.4584 -1.16143e-17)
(65.9443 19.3888 -4.73015e-19)
(67.6591 20.451 -8.18759e-18)
(68.9765 21.5427 0)
(68.7173 22.0905 1.29859e-17)
(62.3304 20.2957 -2.17246e-17)
(34.662 11.5735 0)
(39.1844 0.0120446 0)
(41.2266 -0.11696 0)
(41.2806 0.122196 3.26304e-19)
(41.3329 0.0956302 -1.82383e-20)
(41.3627 0.258001 3.07479e-19)
(41.444 0.296283 3.49281e-19)
(41.5457 0.40763 0)
(41.6572 0.497122 -3.87336e-19)
(41.772 0.601262 3.3877e-19)
(41.9003 0.706882 0)
(42.0563 0.810138 -5.66112e-19)
(42.2247 0.918125 -5.13617e-20)
(42.4116 1.0212 -1.62371e-20)
(42.6253 1.15186 1.81035e-20)
(42.8846 1.28514 0)
(43.1648 1.46109 0)
(43.4457 1.66019 5.48285e-20)
(43.7374 1.86205 -1.22288e-19)
(44.072 2.07451 9.36967e-20)
(44.4478 2.29206 -3.91854e-20)
(44.837 2.53248 1.00325e-19)
(45.2355 2.80569 -6.31802e-20)
(45.6761 3.11718 6.76959e-19)
(46.14 3.46064 3.19897e-19)
(46.628 3.81798 -6.03253e-19)
(47.1962 4.18323 -9.92802e-19)
(47.8043 4.5684 7.58374e-19)
(48.4459 4.9909 1.17406e-18)
(49.1263 5.4883 0)
(49.9016 6.07225 0)
(50.7827 6.73702 0)
(51.6984 7.43487 -1.84794e-18)
(52.6526 8.11448 -1.31358e-18)
(53.6055 8.79825 -1.45653e-18)
(54.6055 9.48448 2.02427e-18)
(55.6699 10.2168 2.50945e-18)
(56.7877 10.9865 -1.30959e-18)
(57.8678 11.7741 3.69577e-18)
(58.9106 12.5641 -2.16654e-18)
(60.134 13.3637 -2.8843e-18)
(61.5727 14.1492 -3.59702e-18)
(62.9904 14.9302 4.01115e-18)
(64.5155 15.668 0)
(66.138 16.4259 6.50094e-18)
(67.7624 17.1683 -3.72886e-18)
(69.3568 18.0631 4.52088e-18)
(70.3539 18.8603 0)
(69.7133 19.2416 -6.66733e-18)
(61.7888 17.2675 3.93458e-18)
(31.7307 8.61216 0)
(39.108 0.0169622 2.01927e-19)
(41.3136 -0.0955347 0)
(41.3704 0.133286 4.98897e-19)
(41.416 0.0931965 -2.46444e-19)
(41.4649 0.254159 -2.97985e-19)
(41.5435 0.28161 8.81291e-21)
(41.6472 0.383521 -9.80818e-21)
(41.7727 0.455178 0)
(41.917 0.536796 -3.30409e-19)
(42.068 0.622995 1.23427e-19)
(42.2343 0.721506 1.60372e-19)
(42.4244 0.830266 -1.52114e-19)
(42.6417 0.947607 3.51596e-20)
(42.8691 1.05948 5.93697e-21)
(43.089 1.19139 -1.38588e-21)
(43.3632 1.29286 0)
(43.6792 1.43143 -8.26524e-20)
(44.0187 1.57654 1.48691e-19)
(44.3826 1.75603 5.0085e-20)
(44.8057 1.95698 -1.16303e-20)
(45.2698 2.17327 6.01333e-20)
(45.7502 2.4112 0)
(46.2655 2.6681 1.32993e-19)
(46.8117 2.96316 5.47417e-19)
(47.3813 3.30704 7.6768e-19)
(48.0358 3.68372 9.98206e-19)
(48.72 4.10952 0)
(49.4129 4.55878 -8.23566e-19)
(50.1632 5.00422 -1.78206e-18)
(50.9451 5.43612 1.04291e-18)
(51.7314 5.87023 -2.28538e-18)
(52.5493 6.3218 -1.1641e-18)
(53.4249 6.83258 2.1814e-18)
(54.4105 7.40495 -8.19669e-19)
(55.4662 8.03826 -2.04217e-18)
(56.5662 8.68 -1.18494e-18)
(57.7007 9.32762 -1.57697e-18)
(58.9784 9.97964 0)
(60.4443 10.6511 -2.58223e-18)
(61.8863 11.3339 5.73329e-18)
(63.1702 12.0421 3.60812e-18)
(64.5786 12.7449 -4.29297e-18)
(65.99 13.4831 5.67367e-18)
(67.4092 14.1868 -2.98014e-18)
(68.9712 14.8196 7.92029e-18)
(70.7074 15.6172 1.3641e-19)
(71.4783 16.1182 0)
(69.9949 16.329 1.38224e-17)
(60.1314 14.2379 -1.18368e-17)
(28.0792 5.85534 -4.52732e-18)
(39.0466 0.0168148 -2.02094e-19)
(41.3986 -0.100413 1.92527e-19)
(41.4816 0.127935 -2.34691e-19)
(41.5125 0.0746535 2.43123e-19)
(41.5659 0.246953 1.18022e-19)
(41.6497 0.264867 8.00292e-21)
(41.7537 0.358722 -4.27306e-21)
(41.8651 0.422211 0)
(41.9931 0.498263 1.07132e-19)
(42.1466 0.563134 -1.76913e-19)
(42.3171 0.626432 0)
(42.5076 0.681901 3.35705e-21)
(42.724 0.757361 -3.03865e-20)
(42.9941 0.831666 2.30304e-20)
(43.2829 0.933474 -6.93128e-20)
(43.5758 1.05134 -5.683e-21)
(43.9066 1.16753 1.63276e-20)
(44.262 1.29915 0)
(44.659 1.42879 -1.12457e-19)
(45.0862 1.57764 2.9742e-19)
(45.5535 1.75128 -3.75173e-20)
(46.0412 1.95305 0)
(46.5646 2.18018 0)
(47.1222 2.40805 -2.98492e-19)
(47.6914 2.66687 1.30476e-19)
(48.3488 2.92231 -9.67931e-19)
(49.0773 3.20411 3.96911e-19)
(49.8334 3.52319 -2.35842e-19)
(50.6112 3.90655 8.57071e-19)
(51.4928 4.36047 3.73542e-19)
(52.4603 4.86952 1.37132e-18)
(53.4915 5.42515 -1.33168e-18)
(54.5815 5.99624 8.42784e-19)
(55.6573 6.54953 -9.72853e-19)
(56.7387 7.07332 -1.22154e-18)
(57.8439 7.60797 -1.39293e-18)
(59.0384 8.16661 0)
(60.2417 8.75596 3.32758e-18)
(61.3304 9.34321 -1.25775e-18)
(62.5227 9.92621 -3.11525e-18)
(64.017 10.46 3.74381e-18)
(65.4602 11.0058 -1.28277e-19)
(66.9903 11.47 -2.96739e-18)
(68.6521 11.9284 -6.72217e-20)
(70.3134 12.3978 -4.01322e-18)
(71.7816 13.009 -9.59711e-18)
(72.0538 13.3343 5.53668e-18)
(69.8155 13.4074 0)
(57.9064 11.2316 -8.32208e-18)
(23.5575 3.29067 1.59461e-17)
(38.9854 0.000938395 -3.29357e-22)
(41.4952 -0.0946744 -1.93852e-19)
(41.5672 0.123138 4.63082e-20)
(41.6069 0.0669209 1.68487e-21)
(41.6554 0.225576 -1.17873e-19)
(41.7336 0.231445 0)
(41.8408 0.312956 0)
(41.9736 0.35706 3.13845e-21)
(42.118 0.403612 -1.63923e-19)
(42.2675 0.45953 5.13264e-20)
(42.4444 0.52106 -1.47855e-21)
(42.6468 0.576971 1.97988e-21)
(42.8677 0.618927 -1.35372e-20)
(43.1091 0.674296 8.66717e-22)
(43.3909 0.701144 1.0801e-19)
(43.7054 0.765813 -3.78895e-20)
(44.0604 0.820024 5.68513e-20)
(44.4354 0.905213 2.12388e-20)
(44.8615 1.00043 -2.4486e-19)
(45.3469 1.10435 -1.92088e-19)
(45.8757 1.21175 8.23353e-21)
(46.4356 1.34306 -5.85441e-20)
(47.0294 1.5143 0)
(47.6728 1.71743 -3.43976e-19)
(48.3305 1.96241 9.00211e-21)
(49.0573 2.24462 1.23149e-19)
(49.8304 2.55638 1.03308e-19)
(50.6226 2.88397 2.85731e-19)
(51.4709 3.20364 0)
(52.3408 3.51225 2.2754e-19)
(53.2338 3.82717 1.32634e-18)
(54.1449 4.14501 1.2775e-18)
(55.0833 4.47598 -7.391e-19)
(56.1161 4.87487 1.50759e-18)
(57.2332 5.33003 -1.22952e-18)
(58.4433 5.80435 -7.78165e-19)
(59.6638 6.29083 0)
(60.9443 6.75888 -2.21305e-18)
(62.4419 7.21105 -1.44126e-18)
(63.9958 7.66003 1.6101e-18)
(65.2818 8.15508 -1.98967e-18)
(66.6854 8.59587 2.40723e-18)
(68.0957 9.08604 0)
(69.4595 9.54848 1.78296e-18)
(71.0061 9.98443 0)
(72.2816 10.4164 2.48451e-18)
(72.4237 10.564 -5.82457e-18)
(68.8267 10.5297 3.46559e-18)
(54.2895 8.33353 0)
(18.2185 1.13043 1.15203e-18)
(38.9107 -0.0106073 -3.72904e-23)
(41.5892 -0.117919 -3.92989e-23)
(41.6714 0.102295 -4.77452e-20)
(41.7008 0.0356067 -1.79081e-22)
(41.7395 0.194525 -1.28653e-21)
(41.8149 0.191144 -1.83266e-22)
(41.907 0.261511 2.03996e-22)
(42.008 0.302143 -3.23449e-22)
(42.1504 0.332878 4.63464e-20)
(42.3095 0.349378 4.35229e-22)
(42.4822 0.355015 7.27742e-23)
(42.6758 0.382102 1.20285e-23)
(42.9203 0.388528 7.85981e-21)
(43.1898 0.411384 -2.45625e-20)
(43.4777 0.430067 -4.95296e-20)
(43.799 0.450117 3.75152e-20)
(44.1552 0.475517 -5.51759e-20)
(44.5533 0.499422 -2.88854e-21)
(44.9762 0.5421 -3.93945e-21)
(45.4519 0.612336 0)
(45.9749 0.685297 -6.96329e-21)
(46.5364 0.775294 -4.74036e-21)
(47.1256 0.870387 5.29912e-21)
(47.7529 0.976316 0)
(48.4084 1.101 0)
(49.1456 1.2362 3.48842e-19)
(49.9726 1.39889 0)
(50.8239 1.60246 -2.8615e-19)
(51.6915 1.86651 0)
(52.6606 2.18517 1.47617e-20)
(53.7092 2.54692 -5.90885e-19)
(54.7945 2.94529 4.20733e-20)
(55.9652 3.38183 -9.01554e-19)
(57.1426 3.78672 8.08097e-20)
(58.3067 4.16992 5.51745e-19)
(59.4404 4.55303 8.75439e-19)
(60.6394 4.92942 -3.08578e-20)
(61.9039 5.31787 0)
(63.0297 5.73202 -2.26529e-20)
(64.1317 6.14316 2.7342e-20)
(65.6122 6.45904 0)
(67.0339 6.80801 -3.95242e-20)
(68.5017 7.04839 -1.95391e-19)
(70.1443 7.26277 -1.56997e-18)
(71.822 7.5402 -3.2593e-20)
(72.7027 7.78163 0)
(72.028 7.85039 0)
(67.1384 7.68741 5.13265e-19)
(50.1508 5.59914 -5.09052e-19)
(12.3512 -0.453172 1.1512e-18)
(38.8231 -0.0186444 -6.9517e-20)
(41.6833 -0.116136 -7.47687e-20)
(41.7537 0.0894526 -4.0235e-20)
(41.7787 0.0247061 -4.28687e-20)
(41.8092 0.162912 -4.11724e-20)
(41.8765 0.147793 4.20237e-20)
(41.973 0.1989 0)
(42.0797 0.212605 0)
(42.2004 0.230491 -1.58319e-20)
(42.3431 0.247809 -4.35175e-22)
(42.5213 0.248077 3.06596e-21)
(42.7052 0.227647 -4.713e-23)
(42.9207 0.212893 -2.04702e-20)
(43.1842 0.164628 3.97983e-20)
(43.4773 0.140399 6.93956e-20)
(43.8047 0.0985968 0)
(44.1644 0.078815 0)
(44.5745 0.0477586 2.88814e-21)
(45.039 0.022083 3.93891e-21)
(45.5505 -0.00269292 -1.80484e-19)
(46.1195 -0.00535971 6.96233e-21)
(46.7453 0.0181874 0)
(47.412 0.0784366 0)
(48.1247 0.162441 -6.64729e-20)
(48.8512 0.294338 -3.32149e-19)
(49.6256 0.444355 1.06244e-19)
(50.4618 0.622743 0)
(51.3402 0.808919 -3.19276e-19)
(52.2669 0.98772 0)
(53.212 1.16747 -1.47585e-20)
(54.1803 1.34972 0)
(55.2036 1.55027 0)
(56.2143 1.74669 2.37705e-19)
(57.2668 2.00283 2.80318e-19)
(58.3927 2.28984 0)
(59.6349 2.59013 0)
(60.9222 2.91817 3.08496e-20)
(62.2023 3.25886 0)
(63.6571 3.53374 2.26456e-20)
(65.2824 3.77608 -9.18224e-19)
(66.5479 4.10254 1.10356e-18)
(67.8896 4.33725 1.28781e-19)
(69.2603 4.62712 1.03394e-19)
(70.5391 4.91627 -1.74283e-18)
(71.9342 5.19579 -1.06965e-18)
(72.3831 5.28656 6.15432e-18)
(71.3989 5.23675 -2.93863e-18)
(64.5288 4.93475 -3.66994e-18)
(44.4846 2.97802 3.00542e-18)
(7.45789 -1.37817 0)
(38.7247 -0.024569 6.92132e-20)
(41.7577 -0.134601 -6.79357e-20)
(41.8274 0.0718365 3.95937e-20)
(41.8565 -0.0141198 -3.87349e-20)
(41.8662 0.126161 4.39727e-20)
(41.9203 0.10033 -4.34887e-20)
(41.988 0.148346 -2.27514e-21)
(42.0731 0.148417 2.53317e-21)
(42.196 0.130171 1.43798e-20)
(42.3278 0.100401 1.60642e-21)
(42.4868 0.0829888 -3.02152e-21)
(42.672 0.0354993 1.89966e-20)
(42.8822 -0.00807969 -2.67671e-20)
(43.1326 -0.0747826 -3.49587e-20)
(43.4238 -0.148484 -2.17282e-19)
(43.7502 -0.231839 1.49669e-20)
(44.1145 -0.312647 -1.67069e-20)
(44.5089 -0.38733 2.08132e-19)
(44.9574 -0.443098 3.819e-20)
(45.4527 -0.506549 1.37613e-19)
(46.0002 -0.566025 0)
(46.5934 -0.62569 0)
(47.2226 -0.673807 0)
(47.9162 -0.711402 0)
(48.651 -0.727892 3.21819e-19)
(49.4542 -0.719287 -8.38938e-19)
(50.3479 -0.691626 0)
(51.2622 -0.613623 9.7618e-19)
(52.2019 -0.47347 0)
(53.2417 -0.289903 0)
(54.363 -0.0581482 -1.25023e-18)
(55.4745 0.187776 7.98663e-19)
(56.6807 0.470204 -1.87114e-18)
(57.934 0.731998 5.31797e-19)
(59.1711 0.995419 0)
(60.3634 1.26128 0)
(61.549 1.51412 1.066e-18)
(62.8132 1.7241 -3.67938e-18)
(63.985 1.99564 0)
(64.9787 2.2966 -2.76499e-18)
(66.3886 2.45071 4.29399e-18)
(67.7655 2.6573 -5.12923e-18)
(69.1343 2.75035 2.95636e-18)
(70.7583 2.81926 -3.65044e-18)
(72.0515 2.88867 9.05521e-18)
(72.2221 2.89986 -8.35145e-18)
(69.7716 2.8348 6.08793e-18)
(60.8525 2.47493 -1.38039e-17)
(38.013 0.634477 1.67263e-17)
(4.17128 -1.51424 -1.0799e-17)
(38.6188 -0.0298206 1.314e-19)
(41.8401 -0.137255 1.96929e-21)
(41.8976 0.0532586 0)
(41.9077 -0.0220379 8.08069e-20)
(41.9164 0.106895 1.71297e-19)
(41.9598 0.0718904 -5.42154e-21)
(42.0212 0.0985647 0)
(42.0835 0.0935537 0)
(42.1769 0.0754522 2.73986e-21)
(42.2846 0.0319643 -3.05218e-21)
(42.4162 -0.0361923 8.36893e-21)
(42.5727 -0.109113 1.55178e-20)
(42.7617 -0.210483 4.88964e-20)
(42.9885 -0.309463 -8.65308e-20)
(43.2596 -0.435469 1.42029e-19)
(43.572 -0.566015 3.04721e-20)
(43.9385 -0.716944 -3.33217e-19)
(44.3537 -0.874441 -6.23059e-19)
(44.8184 -1.03189 0)
(45.344 -1.1752 3.74757e-19)
(45.9454 -1.30447 4.93391e-19)
(46.6114 -1.40929 0)
(47.3144 -1.48391 -8.28453e-19)
(48.0606 -1.53583 0)
(48.8355 -1.55525 0)
(49.6473 -1.54623 8.36402e-19)
(50.5329 -1.51207 5.0384e-19)
(51.4877 -1.48258 1.30772e-18)
(52.4701 -1.45379 0)
(53.4646 -1.41596 0)
(54.4997 -1.36994 5.83318e-19)
(55.6061 -1.28105 7.40401e-19)
(56.6955 -1.19023 2.90021e-18)
(57.78 -1.05278 9.97274e-20)
(58.9145 -0.90349 1.1708e-19)
(60.1399 -0.733297 -3.42481e-18)
(61.4657 -0.551462 -1.59778e-19)
(62.7695 -0.299514 4.87656e-18)
(64.1405 -0.133161 3.00146e-18)
(65.807 -0.0508113 1.78514e-18)
(67.0656 0.166005 4.43326e-18)
(68.3183 0.2664 3.2571e-19)
(69.6387 0.429755 -5.87842e-18)
(70.9006 0.639191 -3.44166e-18)
(71.5603 0.800501 -1.02414e-17)
(71.077 0.804672 1.24232e-17)
(67.8064 0.745045 -5.66236e-18)
(56.1112 0.440435 0)
(29.7835 -1.08569 0)
(1.2856 -0.936626 2.11552e-18)
(38.5015 -0.0322571 -3.97805e-19)
(41.9075 -0.17048 -1.47108e-19)
(41.9608 0.0350816 1.56358e-19)
(41.9811 -0.0544651 -4.84371e-21)
(41.956 0.0721641 -3.36211e-19)
(41.9738 0.0395628 5.48715e-21)
(42.0093 0.0686972 0)
(42.0599 0.0369803 1.55237e-19)
(42.1274 0.00163337 3.03702e-21)
(42.2138 -0.0423905 -1.80169e-21)
(42.3243 -0.129209 -3.00253e-20)
(42.4573 -0.227477 -3.09571e-20)
(42.6178 -0.361355 3.61715e-21)
(42.8243 -0.510728 7.79995e-20)
(43.0717 -0.67967 0)
(43.3634 -0.854694 0)
(43.6967 -1.03606 2.56957e-19)
(44.0827 -1.21989 4.60432e-19)
(44.5201 -1.42445 0)
(44.9976 -1.63412 -3.73576e-19)
(45.5362 -1.84778 -4.91749e-19)
(46.1446 -2.07111 -1.72844e-19)
(46.8179 -2.27065 1.99956e-19)
(47.5566 -2.46642 7.67284e-19)
(48.3516 -2.6308 3.16746e-19)
(49.2056 -2.77649 4.52e-19)
(50.1401 -2.88632 -1.56749e-18)
(51.0954 -2.93777 -1.32662e-18)
(52.1088 -2.93438 1.65907e-18)
(53.2108 -2.87741 -2.05604e-18)
(54.3731 -2.78296 0)
(55.5461 -2.67478 0)
(56.7774 -2.52639 1.01334e-19)
(58.0661 -2.38344 -2.23139e-18)
(59.3567 -2.225 2.83231e-18)
(60.624 -2.07585 5.21456e-18)
(61.8184 -1.90352 -1.99289e-18)
(63.0575 -1.8066 -4.98281e-18)
(64.3025 -1.64942 -5.96208e-18)
(65.2076 -1.40328 -3.69334e-18)
(66.5145 -1.34684 -2.73248e-19)
(67.8492 -1.20898 4.89972e-18)
(69.1387 -1.16009 0)
(70.6139 -1.11342 3.36704e-18)
(71.148 -1.18021 3.97508e-18)
(70.2685 -1.09787 4.80068e-18)
(64.675 -0.910912 1.69283e-17)
(49.8554 -0.912493 -6.32679e-18)
(20.4353 -1.78478 0)
(-0.566257 -0.102583 0)
(38.3737 -0.027884 -1.15943e-20)
(41.9621 -0.169454 2.87432e-19)
(42.0348 0.0342271 -1.60915e-19)
(42.0233 -0.0465361 3.41694e-19)
(42.0019 0.0842861 1.80934e-19)
(42.0053 0.0341398 -5.90609e-22)
(42.0003 0.0708237 -5.63424e-21)
(42.0272 0.0382805 -1.45848e-19)
(42.0658 -0.0112999 -1.00994e-20)
(42.1154 -0.0748836 -4.9041e-21)
(42.1854 -0.172188 2.4249e-20)
(42.2782 -0.300016 1.19892e-21)
(42.3925 -0.447418 -4.6626e-20)
(42.5531 -0.640679 -1.1726e-19)
(42.7611 -0.863024 3.58219e-20)
(43.0262 -1.12149 -3.99593e-20)
(43.3474 -1.39687 0)
(43.7282 -1.67679 -3.62808e-19)
(44.1846 -1.95914 0)
(44.7121 -2.24193 0)
(45.3033 -2.50926 0)
(45.9664 -2.76311 -3.37037e-19)
(46.6741 -3.00231 1.19111e-18)
(47.4361 -3.21188 -1.04528e-18)
(48.247 -3.39473 0)
(49.0921 -3.53656 -4.47294e-19)
(50.016 -3.66649 -1.59558e-18)
(51.0483 -3.79984 -2.62888e-18)
(52.0702 -3.9104 -2.51877e-18)
(53.1082 -4.02934 2.05637e-18)
(54.2181 -4.09973 -2.53065e-18)
(55.35 -4.14134 1.48282e-18)
(56.5149 -4.16737 3.79079e-18)
(57.6812 -4.14868 0)
(58.8481 -4.10025 2.81659e-18)
(60.0631 -4.00756 -6.9449e-18)
(61.4122 -3.93507 -1.46389e-19)
(62.7688 -3.77318 4.93009e-18)
(64.0517 -3.65364 2.95372e-18)
(65.7552 -3.66559 0)
(67.0541 -3.49309 4.19175e-18)
(68.2473 -3.447 -5.12384e-18)
(69.5758 -3.31512 1.11341e-17)
(70.5386 -3.14328 0)
(70.3409 -2.87901 -1.63029e-17)
(68.1327 -2.63426 4.46241e-18)
(60.9273 -2.25809 -5.46577e-18)
(42.3696 -1.7801 -6.21155e-18)
(10.3325 -1.55009 1.36925e-17)
(-1.97952 0.693606 1.4237e-20)
(38.2396 -0.029405 2.78072e-19)
(42.0152 -0.186878 -3.13934e-19)
(42.0952 0.0146294 3.42193e-19)
(42.0896 -0.0711998 -7.03547e-19)
(42.0384 0.0631439 3.96249e-19)
(42.0251 0.0285888 -2.35181e-20)
(42.0034 0.075235 2.11208e-19)
(41.9993 0.0538922 0)
(42.0038 0.00755023 1.92474e-19)
(42.02 -0.0709197 -1.78226e-19)