/*--------------------------------*- C++ -*----------------------------------*\
| =========                 |                                                 |
| \\      /  F ield         | OpenFOAM: The Open Source CFD Toolbox           |
|  \\    /   O peration     | Version:  v1912                                 |
|   \\  /    A nd           | Website:  www.openfoam.com                      |
|    \\/     M anipulation  |                                                 |
\*---------------------------------------------------------------------------*/
FoamFile
{
    version     2.0;
    format      ascii;
    class       volScalarField;
    location    "0.17";
    object      p;
}
// * * * * * * * * * * * * * * * * * * * * * * * * * * * * * * * * * * * * * //

dimensions      [0 2 -2 0 0 0 0];


internalField   nonuniform List<scalar> 
6600
(
55.6548
50.8779
48.4053
46.93
46.2772
46.0774
46.0992
46.4291
47.1606
48.3214
49.9427
51.8982
54.2308
56.9621
60.1201
63.7004
67.7009
72.1377
77.0014
82.2666
87.9444
93.9883
100.34
106.937
113.753
120.802
127.911
134.963
141.918
148.615
154.857
160.483
165.323
169.164
171.728
172.689
171.662
168.258
162.115
152.782
139.761
122.526
100.512
72.93
39.1875
-1.51719
-49.3808
-105.237
-170.444
-236.982
52.2712
47.088
45.1546
43.355
42.2577
41.681
41.4127
41.4708
41.8677
42.6889
43.9103
45.623
47.6872
50.0719
52.8398
56.0347
59.6068
63.5532
67.8856
72.5757
77.6231
82.9896
88.6264
94.4801
100.397
106.325
112.342
118.21
123.733
128.999
133.76
137.679
140.643
142.461
142.848
141.452
137.888
131.786
122.76
110.351
94.0423
73.2684
47.4876
16.0022
-21.7891
-66.6809
-118.835
-178.431
-245.932
-312.704
47.5449
41.8407
40.7311
38.6557
37.3046
36.4244
35.8985
35.7689
36.0695
36.7213
37.707
38.9865
40.725
42.8971
45.3713
48.2206
51.4141
54.9417
58.8082
62.9801
67.4329
72.1363
77.0462
82.0622
87.065
92.0397
96.9327
101.611
105.841
109.522
112.543
114.657
115.632
115.265
113.259
109.303
103.031
94.0498
81.9765
66.3552
46.6667
22.3768
-7.00927
-42.0483
-83.3129
-131.52
-186.849
-248.586
-315.567
-378.704
41.6816
35.6527
35.1475
32.757
31.3363
30.27
29.5781
29.2499
29.3908
29.8103
30.6694
31.7927
33.2427
35.0902
37.2984
39.838
42.6645
45.7946
49.2064
52.8528
56.702
60.7153
64.8675
69.1188
73.251
77.1356
80.8109
84.1671
86.985
89.1283
90.4216
90.6373
89.5588
86.9444
82.5107
75.9386
66.8923
55.0112
39.8993
21.1246
-1.76838
-29.252
-61.7384
-99.6421
-143.431
-193.741
-250.606
-312.542
-377.178
-434.389
35.0611
28.5592
28.3239
25.6032
24.2315
23.0871
22.2293
21.8281
21.8007
22.0974
22.6555
23.5594
24.8064
26.3576
28.2088
30.3737
32.8115
35.4936
38.3997
41.4792
44.6915
47.9708
51.28
54.5509
57.7047
60.6079
63.1153
65.1479
66.5432
67.0887
66.6325
64.9692
61.8559
57.0434
50.2395
41.1639
29.4974
14.8831
-3.02026
-24.5801
-50.1824
-80.1855
-114.903
-154.649
-199.763
-250.658
-307.352
-368.209
-429.105
-478.576
27.5971
20.7141
20.3652
17.3859
15.969
14.7785
13.8569
13.2153
12.9528
13.0145
13.3995
14.0983
15.0088
16.1947
17.6711
19.3935
21.3357
23.4848
25.7969
28.2331
30.7411
33.2364
35.6879
38.0965
40.2229
41.9611
43.2564
43.9592
43.8993
42.9213
40.8046
37.3299
32.2827
25.4115
16.4516
5.11421
-8.8856
-25.8204
-45.9945
-69.7112
-97.2461
-128.863
-164.775
-205.189
-250.352
-300.554
-355.632
-413.914
-469.772
-510.118
18.9639
11.8771
11.2758
8.05592
6.62707
5.25172
4.24806
3.51268
3.05425
2.7812
2.8377
3.14961
3.72975
4.50181
5.46153
6.64518
8.00317
9.51771
11.1437
12.8423
14.5677
16.2257
17.7289
19.0698
20.2201
20.9326
21.0548
20.4774
19.0476
16.5633
12.8503
7.70181
0.903181
-7.78196
-18.6149
-31.8161
-47.6219
-66.2955
-88.0545
-113.112
-141.671
-173.887
-209.875
-249.77
-293.777
-342.191
-394.646
-449.055
-499.104
-529.558
9.01475
1.95159
1.11105
-2.33121
-3.82172
-5.30001
-6.6288
-7.59775
-8.36938
-8.75671
-9.09098
-9.20374
-9.22661
-8.99478
-8.57423
-8.04669
-7.36645
-6.58098
-5.72413
-4.83383
-3.94905
-3.14668
-2.49345
-2.10734
-2.08578
-2.5289
-3.54647
-5.3409
-8.09054
-11.9237
-17.0279
-23.6145
-31.8861
-42.048
-54.2955
-68.8442
-85.8953
-105.605
-128.149
-153.687
-182.332
-214.171
-249.248
-287.614
-329.419
-375.021
-424.22
-474.119
-517.849
-539.057
-2.62675
-9.21455
-10.1749
-13.7405
-15.3703
-17.1035
-18.5876
-19.8519
-20.9522
-21.9136
-22.7047
-23.334
-23.8221
-24.225
-24.5341
-24.6998
-24.7801
-24.8005
-24.7753
-24.7495
-24.7606
-24.8806
-25.1994
-25.7917
-26.7436
-28.1844
-30.2938
-33.1956
-37.0401
-42.0233
-48.3177
-56.0776
-65.4549
-76.638
-89.825
-105.151
-122.749
-142.782
-165.351
-190.536
-218.413
-249.002
-282.283
-318.272
-357.075
-398.966
-444.108
-489.536
-527.953
-542.634
-15.7671
-21.5526
-22.6166
-26.1875
-27.9222
-30.014
-31.8175
-33.4763
-34.9523
-36.4409
-37.7716
-39.1157
-40.263
-41.35
-42.3682
-43.3477
-44.2635
-45.1396
-45.9816
-46.8443
-47.7551
-48.7652
-49.9327
-51.3894
-53.3241
-55.782
-58.832
-62.6665
-67.4567
-73.3256
-80.4163
-88.9121
-98.9761
-110.738
-124.299
-139.797
-157.36
-177.043
-198.912
-223.024
-249.388
-277.997
-308.811
-341.763
-376.857
-414.643
-454.653
-494.868
-528.984
-541.693
-30.0703
-35.068
-36.1391
-39.5865
-41.5214
-43.8248
-46.0391
-48.0926
-50.202
-52.2138
-54.2003
-56.173
-58.1576
-60.1189
-62.0071
-63.8445
-65.6417
-67.4122
-69.1564
-70.9189
-72.7283
-74.6393
-76.736
-79.0553
-81.709
-84.8686
-88.6688
-93.1987
-98.5821
-104.99
-112.59
-121.481
-131.761
-143.558
-157.003
-172.157
-189.063
-207.798
-228.388
-250.821
-275.085
-301.124
-328.859
-358.228
-389.23
-422.11
-455.693
-488.114
-513.824
-526.25
-45.0272
-49.5686
-50.5434
-53.7596
-55.7832
-58.5239
-61.1604
-63.7977
-66.3941
-69.1924
-72.0535
-74.8265
-77.6957
-80.5114
-83.3408
-86.1238
-88.8511
-91.5486
-94.2015
-96.8439
-99.4993
-102.202
-105
-107.995
-111.339
-115.113
-119.399
-124.333
-130.059
-136.683
-144.306
-153.086
-163.146
-174.57
-187.387
-201.666
-217.474
-234.794
-253.608
-273.905
-295.617
-318.651
-342.869
-368.041
-394.699
-421.806
-447.674
-468.879
-480.602
-489.873
-60.515
-64.4784
-65.4468
-68.6997
-70.8306
-73.8953
-76.9466
-80.2179
-83.617
-87.1463
-90.8293
-94.6864
-98.4482
-102.271
-106.117
-109.891
-113.615
-117.276
-120.863
-124.392
-127.867
-131.342
-134.871
-138.477
-142.234
-146.248
-150.687
-155.688
-161.331
-167.744
-175.077
-183.41
-192.815
-203.368
-215.162
-228.215
-242.493
-257.999
-274.711
-292.549
-311.424
-331.171
-351.504
-372.474
-393.752
-414.256
-432.405
-445.073
-448.77
-452.121
-76.2123
-79.3596
-80.3708
-83.6313
-86.1078
-89.6616
-93.3559
-97.294
-101.576
-106.049
-110.6
-115.346
-120.324
-125.25
-130.16
-135.025
-139.804
-144.479
-149.026
-153.427
-157.677
-161.8
-165.81
-169.786
-173.835
-178.038
-182.435
-187.15
-192.363
-198.198
-204.757
-212.154
-220.504
-229.885
-240.293
-251.729
-264.224
-277.718
-292.11
-307.331
-323.25
-339.649
-356.361
-373.156
-389.274
-403.761
-415.111
-422.011
-427.785
-428.599
-91.5758
-94.0049
-95.1019
-98.4537
-101.272
-105.262
-109.592
-114.375
-119.462
-124.936
-130.808
-136.66
-142.66
-148.833
-154.994
-161.084
-167.044
-172.817
-178.381
-183.7
-188.747
-193.519
-198.044
-202.347
-206.466
-210.43
-214.403
-218.569
-223.003
-227.836
-233.249
-239.389
-246.34
-254.139
-262.865
-272.545
-283.085
-294.408
-306.455
-319.103
-332.209
-345.558
-358.993
-372.019
-383.95
-394.097
-401.34
-404.778
-408.574
-409.687
-106.008
-107.618
-108.926
-112.579
-115.87
-120.517
-125.468
-131.112
-137.353
-143.85
-150.712
-158.052
-165.451
-172.897
-180.403
-187.852
-195.111
-202.106
-208.79
-215.104
-220.969
-226.352
-231.24
-235.652
-239.68
-243.423
-246.89
-250.158
-253.441
-256.959
-260.862
-265.291
-270.411
-276.394
-283.256
-290.936
-299.434
-308.683
-318.531
-328.867
-339.524
-350.206
-360.718
-370.767
-379.638
-386.335
-390.13
-394.19
-395.247
-396.494
-118.955
-119.709
-121.358
-125.261
-129.077
-134.55
-140.445
-146.905
-154.127
-162.099
-170.385
-178.868
-187.753
-196.817
-205.856
-214.8
-223.534
-231.958
-239.929
-247.362
-254.186
-260.316
-265.696
-270.325
-274.228
-277.409
-279.97
-282.145
-284.056
-285.843
-287.78
-290.162
-293.213
-297.023
-301.702
-307.354
-313.882
-321.135
-329.052
-337.531
-346.053
-354.394
-362.652
-370.315
-376.637
-380.867
-383.521
-385.463
-386.678
-387.367
-129.412
-129.81
-131.975
-136.213
-140.63
-146.85
-153.654
-161.46
-169.862
-178.899
-188.67
-198.992
-209.487
-220.135
-230.929
-241.624
-252.092
-262.148
-271.628
-280.401
-288.373
-295.392
-301.329
-306.109
-309.799
-312.491
-314.267
-315.145
-315.309
-315.108
-314.824
-314.727
-315.109
-316.358
-318.705
-322.128
-326.603
-332.117
-338.631
-345.445
-352.054
-358.748
-365.128
-370.564
-374.489
-376.872
-379.126
-380.03
-381.101
-381.394
-136.957
-137.561
-140.207
-144.942
-149.928
-157.081
-164.716
-173.588
-183.486
-194.127
-205.34
-217.192
-229.597
-242.297
-255.051
-267.744
-280.194
-292.156
-303.451
-313.895
-323.308
-331.511
-338.338
-343.673
-347.456
-349.677
-350.381
-349.785
-348.125
-345.592
-342.519
-339.397
-336.787
-335.047
-334.445
-335.332
-337.855
-341.939
-347.057
-352.314
-357.947
-363.566
-368.098
-371.113
-372.776
-374.415
-375.417
-376.428
-377.345
-377.578
-140.816
-142.38
-145.595
-151.013
-156.74
-164.86
-173.53
-183.459
-194.532
-206.683
-219.72
-233.5
-247.804
-262.583
-277.62
-292.632
-307.416
-321.708
-335.23
-347.735
-358.945
-368.692
-376.742
-382.857
-386.889
-388.872
-388.9
-386.98
-383.262
-378.124
-372.042
-365.522
-359.07
-353.403
-349.305
-347.171
-347.188
-349.433
-353.303
-358.341
-364.023
-368.639
-371.22
-372.074
-372.564
-372.922
-373.575
-374.408
-375.16
-375.43
-141.264
-144.149
-148.013
-154.088
-160.651
-169.538
-179.076
-190.456
-202.928
-216.434
-231.106
-246.763
-263.295
-280.433
-297.935
-315.589
-333.093
-350.114
-366.315
-381.35
-394.919
-406.717
-416.506
-424.015
-428.995
-431.261
-430.716
-427.467
-421.824
-414.05
-404.49
-393.705
-382.681
-372.421
-363.715
-357.389
-353.996
-354.246
-357.624
-363.415
-369.334
-373.079
-374.556
-374.474
-373.806
-373.443
-373.332
-373.414
-373.621
-373.891
-137.84
-142.667
-147.244
-154.199
-161.563
-171.409
-181.853
-194.133
-207.898
-222.987
-239.338
-256.945
-275.62
-295.204
-315.423
-335.993
-356.55
-376.746
-396.176
-414.384
-430.94
-445.465
-457.645
-467.088
-473.422
-476.424
-476.025
-472.177
-464.819
-454.261
-441.016
-425.851
-409.534
-393.037
-377.994
-366.177
-358.261
-355.451
-357.971
-364.664
-371.949
-376.487
-377.909
-377.611
-376.499
-374.876
-373.332
-372.256
-371.681
-371.554
-131.812
-138.541
-143.606
-151.159
-159.527
-169.976
-181.202
-194.819
-209.457
-225.898
-243.871
-263.348
-284.217
-306.331
-329.378
-353.099
-377.081
-400.9
-424.067
-446.054
-466.34
-484.383
-499.691
-511.907
-520.618
-525.338
-525.785
-521.692
-513.13
-500.283
-483.543
-463.331
-440.555
-416.833
-394.006
-373.967
-358.53
-350.263
-351.432
-359.926
-370.252
-377.303
-379.497
-378.812
-377.152
-374.641
-371.968
-369.869
-368.578
-367.947
-123.392
-131.586
-137.233
-145.58
-154.595
-165.621
-177.429
-191.865
-207.59
-225.132
-244.604
-265.842
-288.787
-313.334
-339.28
-366.293
-393.951
-421.784
-449.22
-475.655
-500.426
-522.848
-542.301
-558.237
-570.078
-577.231
-579.364
-576.345
-567.626
-553.05
-532.858
-507.813
-478.875
-446.938
-413.642
-382.023
-355.696
-340.283
-338.675
-347.539
-360.826
-372.548
-377.065
-377.009
-375.406
-373.013
-370.153
-367.46
-365.596
-364.296
-113.471
-123.115
-128.623
-137.721
-146.996
-158.377
-170.989
-185.565
-202.056
-220.743
-241.374
-264.128
-289.063
-315.969
-344.698
-374.993
-406.467
-438.59
-470.728
-502.175
-532.17
-559.904
-584.537
-605.264
-621.435
-632.429
-637.651
-636.536
-628.535
-613.408
-591.12
-561.895
-526.174
-484.756
-440.41
-395.738
-355.572
-328.615
-320.421
-328.003
-344.225
-358.682
-369.926
-375.77
-376.879
-375.176
-372.227
-369.056
-366.703
-365.014
-102.616
-112.893
-119.162
-128.3
-137.557
-148.862
-161.832
-176.764
-193.47
-212.703
-234.378
-258.411
-284.921
-313.964
-345.343
-378.847
-414.137
-450.686
-487.829
-524.794
-560.689
-594.562
-625.419
-652.242
-674.077
-690.003
-699.304
-701.431
-695.93
-682.019
-658.841
-626.23
-584.961
-536.184
-480.6
-420.141
-362.075
-322.952
-306.617
-310.022
-329.501
-350.891
-368.479
-379.004
-382.534
-381.527
-378.251
-374.462
-371.71
-370.121
-92.0534
-101.886
-108.646
-117.735
-126.973
-137.884
-150.607
-165.427
-182.367
-201.784
-223.768
-248.676
-276.505
-307.3
-341.038
-377.585
-416.593
-457.593
-499.92
-542.71
-585.02
-625.802
-663.909
-698.063
-726.901
-749.3
-764.424
-771.53
-769.79
-758.554
-736.781
-703.736
-659.724
-603.841
-534.401
-459.487
-390.694
-337.695
-308.873
-304.002
-321.934
-347.352
-368.28
-381.546
-386.16
-385.57
-382.433
-378.968
-376.842
-376.029
-83.4795
-91.1039
-97.8711
-106.736
-115.667
-126.389
-138.403
-152.685
-169.174
-188.419
-210.587
-235.822
-264.315
-296.326
-331.885
-371.07
-413.606
-458.987
-506.541
-555.381
-604.478
-652.776
-699.006
-741.604
-778.846
-809.299
-831.639
-845.084
-848.949
-842.358
-824.9
-793.924
-747.565
-684.666
-606.508
-522.856
-447.762
-385.589
-347.289
-333.898
-337.962
-352.886
-367.888
-378.557
-382.875
-382.572
-380.862
-379.04
-378.323
-378.581
-81.6262
-80.7893
-88.2447
-95.7924
-103.986
-114.463
-125.832
-139.485
-155.154
-173.732
-195.39
-220.451
-249.14
-281.724
-318.46
-359.655
-405.25
-454.807
-507.506
-562.483
-618.637
-674.957
-730.02
-782.002
-828.816
-868.91
-900.156
-922.132
-933.819
-933.409
-920.313
-894.629
-843.804
-776.823
-696.628
-613.399
-531.506
-467.758
-423.789
-397.326
-385.109
-382.657
-384.633
-385.495
-383.713
-380.793
-378.26
-377.475
-377.922
-378.995
-98.7108
-74.7548
-79.8265
-85.4851
-93.411
-103.356
-113.912
-126.738
-141.536
-159.164
-180.177
-204.472
-232.706
-265.382
-302.787
-345.207
-393.006
-446.135
-503.46
-564.386
-627.67
-692.344
-756.521
-817.756
-874.434
-925.729
-967.686
-999.697
-1020.99
-1028.09
-1015.99
-994.094
-947.286
-877.882
-801.003
-719.173
-644.303
-579.276
-526.468
-485.84
-456.174
-434.797
-418.608
-404.93
-393.561
-384.139
-378.68
-377.64
-378.748
-380.193
56.4397
51.6589
49.2073
47.7736
47.1669
46.9921
47.0705
47.4712
48.2681
49.4987
51.1956
53.2615
55.7003
58.5545
61.86
65.5928
69.7821
74.4062
79.4947
85.0239
90.9742
97.3314
104.035
110.998
118.161
125.649
133.31
140.959
148.508
155.906
162.957
169.446
175.218
180.126
183.882
186.155
186.648
184.991
180.772
173.564
162.911
148.267
129.069
104.655
74.4396
37.6706
-6.11019
-57.284
-118.857
-180.748
53.0298
47.8905
45.9629
44.2105
43.1629
42.627
42.4169
42.5487
43.0153
43.9237
45.2415
47.0459
49.2252
51.7525
54.6757
58.0304
61.7961
65.9472
70.516
75.4816
80.8183
86.505
92.5059
98.7731
105.112
111.428
117.884
124.402
130.685
136.599
142.07
146.874
150.791
153.656
155.198
155.079
152.974
148.528
141.308
130.879
116.758
98.3803
75.1981
46.5514
11.8235
-29.7514
-78.4108
-134.234
-199.046
-262.656
48.3213
42.6653
41.5701
39.5524
38.2491
37.4205
36.9507
36.9025
37.2925
38.0233
39.1117
40.4928
42.3715
44.6988
47.3391
50.3645
53.7658
57.5238
61.6471
66.1028
70.8664
75.903
81.1706
86.6212
92.1602
97.6228
102.968
108.166
113.073
117.526
121.343
124.306
126.217
126.895
126.039
123.307
118.412
110.974
100.578
86.7709
69.0725
46.9406
19.8528
-12.7854
-51.5695
-97.2018
-149.812
-208.843
-274.132
-335.559
42.4916
36.5065
36.0521
33.6994
32.3236
31.3123
30.6859
30.4281
30.665
31.1846
32.1444
33.4106
35.0142
37.0156
39.4078
42.1473
45.202
48.5838
52.2708
56.2241
60.4145
64.7995
69.3248
74.0035
78.6802
83.1233
87.3338
91.2832
94.7884
97.6466
99.7158
100.804
100.673
99.0811
95.7541
90.3849
82.6467
72.1785
58.5904
41.4506
20.2982
-5.34144
-35.9133
-71.922
-113.89
-162.432
-217.587
-277.99
-342.095
-399.23
35.8771
29.4288
29.2623
26.572
25.2522
24.1713
23.3772
23.0628
23.1168
23.5278
24.2067
25.2738
26.6793
28.4062
30.4633
32.8468
35.5332
38.4924
41.6949
45.1031
48.679
52.3683
56.0848
59.7937
63.4765
66.9825
70.1116
72.7594
74.82
76.1313
76.4837
75.666
73.4716
69.6655
63.9444
56.0021
45.5461
32.2215
15.6626
-4.49742
-28.6481
-57.1872
-90.4882
-128.94
-172.931
-222.932
-278.89
-339.203
-401.036
-452.294
28.4668
21.6027
21.3125
18.371
17.0177
15.8973
15.0461
14.4961
14.34
14.5224
15.0474
15.9004
16.9882
18.3746
20.0697
22.032
24.2491
26.6971
29.3363
32.1297
35.0199
37.961
40.8708
43.7174
46.3544
48.6542
50.582
51.9945
52.6732
52.4281
51.0963
48.4791
44.3384
38.4215
30.4683
20.2037
7.31452
-8.50564
-27.5529
-50.1334
-76.5678
-107.156
-142.166
-181.893
-226.63
-276.696
-332.074
-391.055
-449.303
-493.251
19.8469
12.8148
12.2479
9.06252
7.71162
6.40605
5.48511
4.85032
4.51623
4.38557
4.58895
5.06047
5.82395
6.81466
8.01308
9.46044
11.1188
12.9544
14.9381
17.0278
19.1542
21.2751
23.3018
25.1405
26.778
28.0442
28.7859
28.8754
28.1598
26.4636
23.5647
19.236
13.2866
5.50175
-4.38976
-16.6505
-31.5148
-49.2534
-70.1248
-94.3618
-122.186
-153.813
-189.442
-229.278
-273.573
-322.627
-376.083
-432.297
-485.993
-521.354
9.9085
2.88392
2.09652
-1.31736
-2.71702
-4.11747
-5.34766
-6.20219
-6.85429
-7.10513
-7.27827
-7.20436
-7.00484
-6.54515
-5.86068
-5.04086
-4.03774
-2.90379
-1.66487
-0.355373
0.957786
2.22716
3.38718
4.35378
4.93625
5.03538
4.5833
3.46
1.45107
-1.64903
-6.00395
-11.7987
-19.2644
-28.6208
-40.0688
-53.8084
-70.0754
-89.0832
-111.012
-136.038
-164.33
-196.025
-231.226
-270.07
-312.793
-359.793
-410.701
-463.156
-511.102
-537.55
-1.71005
-8.29081
-9.17954
-12.7142
-14.2506
-15.9058
-17.2791
-18.4203
-19.3892
-20.2096
-20.8234
-21.2592
-21.4854
-21.6348
-21.6523
-21.5038
-21.2315
-20.8757
-20.4422
-19.9676
-19.5166
-19.1506
-18.9593
-18.9976
-19.3382
-20.1529
-21.6206
-23.9156
-27.1513
-31.4439
-36.9976
-44.0285
-52.701
-63.1881
-75.6907
-90.3924
-107.439
-126.993
-149.209
-174.215
-202.101
-232.94
-266.804
-303.794
-344.084
-387.999
-435.532
-483.634
-525.434
-543.841
-14.8695
-20.6547
-21.6298
-25.1607
-26.797
-28.8063
-30.4949
-32.0164
-33.3475
-34.6604
-35.7899
-36.9233
-37.8428
-38.632
-39.3323
-39.9628
-40.4998
-40.9683
-41.3756
-41.7655
-42.1815
-42.6659
-43.3106
-44.2169
-45.4967
-47.3227
-49.7767
-52.9622
-57.0844
-62.3379
-68.8434
-76.7322
-86.1833
-97.366
-110.423
-125.473
-142.663
-162.113
-183.909
-208.128
-234.842
-264.083
-295.836
-330.142
-367.205
-407.372
-450.382
-493.731
-530.539
-544.059
-29.2158
-34.2009
-35.2009
-38.5945
-40.4196
-42.6276
-44.7192
-46.6306
-48.5704
-50.4052
-52.1979
-53.9111
-55.6593
-57.2901
-58.8336
-60.2979
-61.6882
-63.0168
-64.2955
-65.556
-66.8333
-68.1842
-69.6944
-71.4526
-73.5297
-76.0346
-79.1556
-83.0878
-87.9342
-93.7801
-100.797
-109.152
-118.962
-130.343
-143.417
-158.3
-175.067
-193.788
-214.529
-237.345
-262.248
-289.22
-318.243
-349.287
-382.342
-418.007
-455.36
-492.537
-523.699
-536.621
-44.2534
-48.7178
-49.6488
-52.8152
-54.731
-57.3757
-59.8745
-62.3698
-64.7984
-67.3716
-70.0112
-72.51
-75.0692
-77.5892
-80.0578
-82.4429
-84.7348
-86.9566
-89.1091
-91.2215
-93.3183
-95.4361
-97.6406
-100.029
-102.744
-105.921
-109.616
-113.917
-119.023
-125.125
-132.323
-140.712
-150.409
-161.527
-174.152
-188.339
-204.157
-221.657
-240.846
-261.717
-284.269
-308.478
-334.23
-361.37
-390.109
-420.294
-450.626
-478.677
-499.049
-511.277
-59.8984
-63.7182
-64.634
-67.8197
-69.8452
-72.8146
-75.7311
-78.8503
-82.0767
-85.3752
-88.7864
-92.3641
-95.8088
-99.2903
-102.753
-106.113
-109.381
-112.531
-115.577
-118.533
-121.41
-124.258
-127.133
-130.109
-133.272
-136.693
-140.529
-144.97
-150.119
-156.058
-162.951
-170.934
-180.098
-190.512
-202.237
-215.329
-229.806
-245.66
-262.874
-281.436
-301.285
-322.306
-344.373
-367.337
-391.258
-415.136
-437.425
-454.64
-462.498
-470.433
-75.6935
-78.7415
-79.6901
-82.8646
-85.228
-88.676
-92.2336
-95.9916
-100.067
-104.332
-108.637
-113.088
-117.728
-122.284
-126.773
-131.2
-135.49
-139.621
-143.585
-147.37
-150.987
-154.452
-157.794
-161.087
-164.453
-168.022
-171.859
-176.043
-180.755
-186.187
-192.438
-199.622
-207.838
-217.159
-227.634
-239.266
-252.053
-265.982
-281.009
-297.034
-313.944
-331.606
-349.796
-368.644
-387.333
-404.712
-419.521
-429.662
-434.482
-437.364
-91.1307
-93.4645
-94.5177
-97.8084
-100.517
-104.405
-108.596
-113.203
-118.098
-123.358
-128.949
-134.521
-140.159
-145.923
-151.664
-157.284
-162.708
-167.901
-172.837
-177.484
-181.835
-185.889
-189.665
-193.228
-196.659
-200.008
-203.383
-207.009
-211.029
-215.533
-220.708
-226.692
-233.593
-241.486
-250.394
-260.326
-271.26
-283.123
-295.811
-309.249
-323.313
-337.734
-352.423
-367.126
-381.195
-393.597
-402.882
-408
-414.145
-415.533
-105.666
-107.222
-108.485
-112.077
-115.261
-119.818
-124.63
-130.117
-136.166
-142.448
-149.037
-156.058
-163.141
-170.184
-177.207
-184.127
-190.824
-197.221
-203.23
-208.8
-213.906
-218.524
-222.635
-226.255
-229.465
-232.423
-235.256
-238.026
-240.887
-244.095
-247.83
-252.266
-257.534
-263.704
-270.837
-278.915
-287.868
-297.619
-308.098
-319.17
-330.635
-342.292
-353.92
-365.242
-375.675
-384.294
-390.058
-393.509
-396.13
-398.114
-118.821
-119.463
-121.09
-124.94
-128.65
-134.036
-139.801
-146.108
-153.143
-160.893
-168.939
-177.145
-185.656
-194.311
-202.892
-211.262
-219.398
-227.175
-234.424
-241.069
-247.049
-252.303
-256.793
-260.531
-263.571
-265.971
-267.798
-269.312
-270.775
-272.334
-274.233
-276.692
-279.921
-284.102
-289.26
-295.369
-302.389
-310.218
-318.699
-327.729
-337.121
-346.383
-355.465
-364.07
-371.653
-377.376
-380.747
-384.238
-385.203
-386.785
-129.418
-129.721
-131.849
-136.049
-140.386
-146.55
-153.22
-160.916
-169.168
-178.001
-187.517
-197.529
-207.709
-217.962
-228.269
-238.414
-248.243
-257.585
-266.296
-274.224
-281.257
-287.29
-292.239
-296.045
-298.734
-300.444
-301.349
-301.537
-301.183
-300.636
-300.246
-300.359
-301.254
-303.092
-306.04
-310.136
-315.267
-321.297
-328.186
-335.793
-343.211
-350.372
-357.466
-363.868
-368.851
-371.978
-375.023
-376.751
-377.881
-378.65
-137.034
-137.613
-140.253
-144.934
-149.87
-157.011
-164.533
-173.306
-183.094
-193.557
-204.564
-216.141
-228.196
-240.522
-252.821
-264.965
-276.746
-287.959
-298.438
-307.975
-316.367
-323.454
-329.115
-333.262
-335.89
-337.03
-336.724
-335.215
-332.858
-329.956
-326.886
-324.064
-321.948
-321.024
-321.47
-323.318
-326.559
-331.173
-336.958
-343.047
-348.914
-354.86
-360.196
-364.272
-366.812
-368.532
-370.068
-371.514
-372.64
-373.054
-140.945
-142.535
-145.822
-151.167
-156.864
-164.987
-173.584
-183.464
-194.442
-206.474
-219.32
-232.851
-246.893
-261.308
-275.906
-290.413
-304.545
-318.057
-330.702
-342.215
-352.336
-360.856
-367.582
-372.338
-374.992
-375.622
-374.359
-371.311
-366.742
-361.023
-354.692
-348.399
-342.815
-338.427
-335.722
-334.999
-336.32
-339.602
-344.184
-349.337
-354.804
-359.831
-363.263
-364.946
-365.559
-366.346
-367.096
-368.372
-369.425
-369.807
-141.499
-144.387
-148.347
-154.39
-160.962
-169.878
-179.353
-190.762
-203.172
-216.57
-231.143
-246.626
-262.887
-279.715
-296.824
-313.994
-330.896
-347.167
-362.464
-376.45
-388.829
-399.319
-407.647
-413.566
-416.884
-417.465
-415.356
-410.675
-403.817
-395.144
-385.226
-374.751
-364.548
-355.711
-349.064
-345.033
-343.787
-345.508
-349.589
-355.158
-360.813
-364.866
-366.592
-366.563
-366.245
-365.922
-366.26
-367.071
-367.792
-368.198
-138.256
-142.995
-147.664
-154.534
-162.058
-171.932
-182.369
-194.683
-208.425
-223.504
-239.775
-257.276
-275.804
-295.138
-315.012
-335.141
-355.155
-374.648
-393.184
-410.333
-425.656
-438.77
-449.346
-457
-461.451
-462.417
-459.937
-454.237
-445.237
-433.404
-419.352
-403.948
-388.41
-373.886
-361.709
-353.025
-348.243
-348.272
-352.698
-359.337
-365.592
-369.282
-370.359
-369.902
-368.712
-367.625
-366.771
-366.28
-366.223
-366.545
-132.311
-138.972
-144.096
-151.627
-160.1
-170.515
-181.915
-195.588
-210.247
-226.723
-244.732
-264.163
-284.924
-306.881
-329.69
-353.054
-376.557
-399.742
-422.089
-443.049
-462.078
-478.616
-492.184
-502.447
-508.99
-511.395
-509.395
-502.877
-492.024
-477.238
-459.048
-438.334
-416.122
-394.082
-374.469
-358.864
-348.803
-345.931
-350.176
-358.993
-367.236
-371.996
-373.718
-373.101
-371.271
-368.845
-366.5
-364.687
-363.809
-363.674
-123.921
-132.096
-137.772
-146.182
-155.262
-166.235
-178.27
-192.734
-208.618
-226.249
-245.771
-267.105
-290.074
-314.537
-340.341
-367.113
-394.415
-421.726
-448.434
-473.916
-497.468
-518.361
-536.002
-549.861
-559.347
-563.888
-563.141
-556.965
-545.217
-527.923
-505.61
-479.003
-449.516
-418.952
-389.368
-363.435
-344.174
-335.68
-339.665
-351.48
-363.865
-370.799
-373.404
-373.351
-371.11
-367.875
-364.534
-361.703
-359.974
-359.158
-114.019
-123.689
-129.189
-138.315
-147.676
-159.143
-171.862
-186.529
-203.185
-222.029
-242.851
-265.733
-290.775
-317.76
-346.472
-376.665
-407.93
-439.691
-471.252
-501.872
-530.744
-557.016
-579.815
-598.323
-611.975
-620.117
-622.012
-617.147
-605.316
-586.552
-560.869
-529.079
-492.08
-451.309
-409.245
-369.305
-337.318
-320.821
-321.017
-335.171
-352.296
-364.14
-369.169
-370.616
-369.709
-367.046
-363.38
-359.748
-357.202
-355.493
-103.152
-113.48
-119.718
-128.908
-138.214
-149.615
-162.718
-177.772
-194.682
-214.1
-235.956
-260.274
-287.009
-316.223
-347.742
-381.284
-416.525
-452.918
-489.705
-526.05
-561.013
-593.566
-622.64
-647.232
-666.419
-679.236
-684.857
-682.856
-672.746
-653.894
-626.249
-589.693
-545.263
-494.543
-439.596
-383.693
-334.603
-304.055
-297.473
-310.259
-332.293
-351.6
-365.683
-372.672
-374.061
-371.575
-367.513
-363.079
-359.521
-357.071
-92.5451
-102.441
-109.174
-118.313
-127.618
-138.603
-151.472
-166.442
-183.54
-203.177
-225.475
-250.645
-278.78
-309.943
-343.944
-380.671
-419.794
-460.833
-503.061
-545.513
-587.14
-626.833
-663.329
-695.325
-721.496
-740.745
-752.075
-754.61
-747.455
-730.204
-702.223
-663.099
-613.465
-554.197
-485.328
-410.308
-344.322
-300.228
-284.42
-290.91
-316.296
-342.628
-364.433
-377.06
-381.294
-379.722
-375.322
-370.224
-366.411
-364.29
-83.9944
-91.635
-98.382
-107.279
-116.274
-127.065
-139.224
-153.682
-170.374
-189.788
-212.186
-237.814
-266.734
-299.204
-335.2
-374.698
-417.514
-463.152
-510.871
-559.672
-608.434
-655.957
-700.855
-741.54
-776.308
-803.644
-822.058
-830.711
-828.918
-815.02
-789.498
-752.052
-698.861
-630.185
-546.532
-460.64
-380.941
-324.048
-291.686
-291.669
-313.846
-340.947
-364.318
-378.13
-383.243
-381.985
-378.462
-374.268
-371.585
-370.431
-82.0831
-81.4227
-88.745
-96.313
-104.545
-115.087
-126.6
-140.42
-156.282
-175.08
-196.951
-222.39
-251.598
-284.76
-322.062
-363.676
-409.728
-459.754
-512.944
-568.205
-624.379
-680.286
-734.449
-784.856
-829.516
-866.642
-894.182
-911.118
-916.952
-909.186
-887.094
-852.718
-795.651
-720.156
-628.819
-537.593
-452.393
-383.811
-343.879
-329.275
-335.199
-350.393
-365.789
-376.005
-379.641
-378.301
-375.896
-373.587
-372.614
-372.813
-98.839
-75.2686
-80.3002
-85.9576
-93.8895
-103.897
-114.638
-127.66
-142.645
-160.416
-181.599
-206.459
-235.241
-268.494
-306.534
-349.612
-398
-451.717
-509.863
-571.319
-635.022
-699.583
-763.444
-823.746
-878.709
-927.306
-966.212
-992.986
-1007.35
-1010.02
-991.403
-956.257
-904.31
-823.157
-735.427
-640.483
-555.724
-487.635
-437.165
-404.814
-388.221
-383.044
-383.224
-382.743
-379.739
-375.756
-372.537
-371.217
-371.618
-372.812
-80.5614
-63.7151
-69.812
-76.405
-84.9148
-94.4493
-104.624
-116.91
-131.366
-148.483
-168.719
-192.359
-220.667
-254.516
-293.855
-338.753
-389.75
-447.333
-511.586
-581.591
-655.494
-731.109
-806.078
-878.407
-945.614
-1005.43
-1056.32
-1095.59
-1121.65
-1131.9
-1123.12
-1077.86
-1008.96
-926.61
-834.624
-743.008
-661.722
-590.776
-532.538
-488.583
-456.724
-433.751
-415.557
-399.99
-386.52
-376.177
-370.568
-370.259
-371.737
-373.092
-67.0875
-63.2162
-66.7623
-72.672
-80.5924
-89.3642
-99.6518
-112.047
-126.725
-144.681
-166.53
-192.391
-223.603
-260.912
-304.331
-354.522
-412.356
-478.12
-551.855
-631.852
-716.263
-803.648
-890.896
-975.029
-1053.13
-1122.83
-1179.71
-1221.94
-1244.35
-1242.23
-1207.83
-1152.44
-1080.14
-997.568
-907.447
-819.475
-738.624
-669.371
-609.579
-559.158
-516.853
-481.412
-450.995
-424.651
-402.088
-384.693
-374.795
-372.084
-374.034
-375.736
-58.3661
-61.8529
-65.8785
-71.7635
-78.84
-87.359
-98.1932
-111.25
-127.567
-148.084
-173.608
-204.154
-239.931
-282.419
-333.079
-392.707
-461.322
-538.207
-622.775
-714.845
-812.98
-914.063
-1013.69
-1106.7
-1191.51
-1265.23
-1322.89
-1356.48
-1362.03
-1339.49
-1295.4
-1232.68
-1157.61
-1073.18
-987.994
-904.487
-824.601
-750.272
-683.56
-624.121
-571.76
-525.943
-486.11
-451.905
-423.1
-400.16
-384.676
-377.561
-378.754
-381.118
-51.6141
-57.412
-62.7844
-69.0878
-76.187
-85.0392
-96.7484
-111.164
-129.998
-153.15
-181.692
-216.328
-258.066
-308.39
-368.487
-438.553
-518.693
-609.3
-710.486
-820.737
-936.435
-1051.3
-1160.13
-1260.33
-1350.39
-1425.65
-1475.39
-1491.04
-1480.14
-1445.65
-1392.28
-1323.34
-1244.6
-1159.74
-1072.11
-984.826
-900.277
-820.487
-746.388
-679.015
-618.369
-564.653
-517.945
-478.161
-445.246
-418.949
-399.517
-388.074
-384.8
-389.542
-45.4502
-51.0247
-56.7439
-63.2843
-70.6744
-80.3951
-93.0567
-108.985
-129.331
-154.667
-186.739
-226.53
-275.198
-333.449
-402.677
-484.705
-580.855
-691.624
-814.786
-945.506
-1077.1
-1204.31
-1323.77
-1433.96
-1527.81
-1592.92
-1622.26
-1623.1
-1597.67
-1551.83
-1488.28
-1413.06
-1328.35
-1238.59
-1145.49
-1053.07
-962.968
-876.919
-796.393
-722.003
-654.849
-595.211
-543.553
-500.036
-464.493
-436.455
-415.325
-401.16
-395.548
-402.623
-37.91
-42.3982
-47.5379
-54.1374
-62.1642
-72.5552
-85.4807
-102.129
-123.697
-151.825
-188.163
-233.52
-288.463
-354.59
-435.096
-533.593
-652.031
-787.611
-934.213
-1084.49
-1232.41
-1374.34
-1507.41
-1621.44
-1702.48
-1745.91
-1758.04
-1742.5
-1703.47
-1645.19
-1572.84
-1488.77
-1397.01
-1300.47
-1202.08
-1103.73
-1008.14
-916.453
-830.19
-750.581
-678.414
-614.686
-559.81
-514.016
-477.147
-448.499
-427.253
-413.155
-408.024
-411.404
-28.1984
-32.2059
-36.7079
-42.6306
-50.2856
-60.1664
-72.6682
-89.8197
-113.12
-144.28
-184.453
-234.391
-296.272
-373.376
-470.477
-591.19
-735.203
-896.831
-1066.84
-1237.6
-1404.81
-1561.67
-1697.26
-1793.06
-1851.81
-1876.63
-1871.48
-1840.57
-1788.72
-1719.3
-1636.7
-1544.2
-1445
-1342.17
-1237.99
-1134.54
-1033.7
-937.309
-846.559
-762.776
-687.249
-620.721
-563.902
-516.971
-479.72
-451.482