/*--------------------------------*- C++ -*----------------------------------*\
| =========                 |                                                 |
| \\      /  F ield         | OpenFOAM: The Open Source CFD Toolbox           |
|  \\    /   O peration     | Version:  v1912                                 |
|   \\  /    A nd           | Website:  www.openfoam.com                      |
|    \\/     M anipulation  |                                                 |
\*---------------------------------------------------------------------------*/
FoamFile
{
    version     2.0;
    format      ascii;
    class       surfaceScalarField;
    location    "0.17";
    object      phi;
}
// * * * * * * * * * * * * * * * * * * * * * * * * * * * * * * * * * * * * * //

dimensions      [0 3 -1 0 0 0 0];
oriented        oriented;


internalField   nonuniform List<scalar> 
13060
(
0.00555845
0.98864
-0.994198
0.00689302
0.946559
-0.947894
0.00768758
0.901022
-0.901816
0.00831237
0.858016
-0.858641
0.00866144
0.81813
-0.818479
0.00882935
0.780261
-0.780429
0.00864485
0.744227
-0.744043
0.00864811
0.7097
-0.709703
0.00854709
0.676444
-0.676343
0.00827213
0.645054
-0.644779
0.00792364
0.614755
-0.614406
0.00739496
0.585917
-0.585388
0.00716369
0.557921
-0.55769
0.007069
0.531361
-0.531266
0.00692236
0.505812
-0.505666
0.00687379
0.481297
-0.481249
0.00684238
0.457873
-0.457841
0.00681406
0.435366
-0.435337
0.00678764
0.413886
-0.41386
0.0067499
0.393278
-0.39324
0.00670054
0.373612
-0.373562
0.00664484
0.354837
-0.354781
0.00662767
0.336856
-0.336838
0.00679075
0.319578
-0.319741
0.00693404
0.303151
-0.303294
0.0069033
0.287709
-0.287678
0.00677473
0.272908
-0.27278
0.00662517
0.258721
-0.258571
0.00634396
0.245337
-0.245055
0.00597799
0.232675
-0.232309
0.0056278
0.220616
-0.220266
0.00526221
0.20921
-0.208844
0.00486262
0.198443
-0.198043
0.00441072
0.188259
-0.187807
0.00392803
0.178629
-0.178146
0.00341717
0.169583
-0.169072
0.00285302
0.161136
-0.160572
0.00226436
0.153218
-0.152629
0.00166668
0.145779
-0.145181
0.00105328
0.138806
-0.138192
0.000438983
0.13228
-0.131666
-0.000167232
0.126196
-0.12559
-0.000826271
0.120503
-0.119844
-0.00143801
0.115181
-0.114569
-0.00201169
0.110226
-0.109652
-0.00249143
0.105688
-0.105208
-0.00302611
0.101073
-0.100538
-0.00317569
0.0973466
-0.097197
-0.00236466
0.0886386
-0.0894496
0.059474
-0.0618387
0.00543403
0.983206
0.0062553
0.945738
0.00624427
0.901033
0.00559584
0.858665
0.00507966
0.818646
0.00455171
0.780789
0.00412614
0.744653
0.00367684
0.710149
0.00311339
0.677007
0.0029483
0.645219
0.00291677
0.614786
0.00310747
0.585726
0.00302227
0.558006
0.00289396
0.531489
0.0028179
0.505888
0.00267922
0.481436
0.00252804
0.458024
0.00238539
0.435508
0.00225929
0.414012
0.00213923
0.393398
0.00202093
0.37373
0.00188798
0.35497
0.00170293
0.337041
0.00129851
0.319983
0.000776287
0.303673
0.000492462
0.287992
0.000322894
0.273078
6.39682e-05
0.25898
-0.000131303
0.245532
-0.000244908
0.232789
-0.000470592
0.220842
-0.000754957
0.209494
-0.00104406
0.198732
-0.00134905
0.188564
-0.00169297
0.178973
-0.00207074
0.169961
-0.00244158
0.161507
-0.00281778
0.153594
-0.00320745
0.146168
-0.00359446
0.139193
-0.00396601
0.132652
-0.00430045
0.126531
-0.00456703
0.120769
-0.00477644
0.11539
-0.00491471
0.110364
-0.00494839
0.105721
-0.00496742
0.101092
-0.00440833
0.0967875
-0.00300904
0.0872393
0.056465
0.00517589
0.97803
0.00529105
0.945623
0.0047594
0.901565
0.00379446
0.85963
0.00296813
0.819473
0.00218929
0.781568
0.00138294
0.745459
0.000692058
0.71084
-3.27599e-05
0.677732
-0.00103875
0.646225
-0.00204878
0.615796
-0.00297304
0.58665
-0.00348127
0.558515
-0.00389411
0.531902
-0.00436435
0.506359
-0.00470935
0.481781
-0.00500564
0.45832
-0.00527539
0.435778
-0.00551654
0.414253
-0.00574141
0.393623
-0.00594802
0.373937
-0.00613296
0.355155
-0.00626083
0.337169
-0.00609883
0.319821
-0.00587986
0.303454
-0.00594109
0.288054
-0.00606311
0.2732
-0.00612099
0.259037
-0.00632567
0.245737
-0.00660846
0.233072
-0.00677793
0.221011
-0.00692596
0.209642
-0.00710591
0.198912
-0.00729814
0.188756
-0.00747229
0.179147
-0.0076326
0.170121
-0.00781289
0.161687
-0.00798186
0.153763
-0.00812115
0.146308
-0.00823221
0.139304
-0.00830127
0.132721
-0.00831519
0.126545
-0.00825542
0.120709
-0.00810961
0.115244
-0.00786356
0.110118
-0.00750824
0.105366
-0.00706135
0.100645
-0.00590843
0.0956346
-0.00376422
0.0850951
0.0527007
0.00418873
0.973841
0.00353455
0.946277
0.00223345
0.902866
0.00063291
0.86123
-0.000916458
0.821022
-0.00242372
0.783075
-0.00360805
0.746643
-0.00474716
0.711979
-0.00574332
0.678728
-0.00628913
0.646771
-0.00660055
0.616108
-0.0069785
0.587028
-0.0075792
0.559115
-0.0080224
0.532345
-0.00841698
0.506753
-0.0088602
0.482224
-0.0092701
0.45873
-0.00964244
0.436151
-0.00997325
0.414584
-0.010272
0.393921
-0.0105364
0.374201
-0.0107799
0.355399
-0.0110469
0.337435
-0.0115562
0.32033
-0.0121177
0.304015
-0.0124126
0.288349
-0.0125936
0.273381
-0.0127734
0.259217
-0.0128311
0.245794
-0.0128312
0.233072
-0.0129041
0.221084
-0.0129915
0.20973
-0.0130527
0.198973
-0.0130864
0.18879
-0.013123
0.179184
-0.013151
0.170149
-0.0131201
0.161656
-0.0130515
0.153694
-0.0129482
0.146204
-0.0127885
0.139144
-0.0125582
0.132491
-0.0122357
0.126222
-0.011817
0.120291
-0.0112977
0.114725
-0.0106589
0.109479
-0.00981776
0.104525
-0.00888784
0.0997153
-0.00731603
0.0940628
-0.00450613
0.0822852
0.0481946
0.00273434
0.971107
0.00169969
0.947312
-0.000176709
0.904742
-0.00153029
0.862584
-0.00334479
0.822836
-0.00489819
0.784628
-0.00637919
0.748124
-0.00779128
0.713391
-0.00913144
0.680069
-0.0105863
0.648225
-0.0120977
0.617619
-0.0133241
0.588255
-0.0142558
0.560047
-0.0151624
0.533252
-0.0159632
0.507554
-0.016603
0.482864
-0.0171584
0.459286
-0.0176473
0.436639
-0.0180843
0.415021
-0.0184725
0.39431
-0.0188054
0.374534
-0.0190777
0.355671
-0.0192546
0.337612
-0.0190828
0.320158
-0.0188118
0.303744
-0.0188162
0.288353
-0.0189062
0.273471
-0.0189252
0.259236
-0.0190229
0.245892
-0.0191553
0.233204
-0.0191576
0.221087
-0.0190912
0.209663
-0.0190141
0.198896
-0.018917
0.188693
-0.0187562
0.179023
-0.0185416
0.169934
-0.0183081
0.161422
-0.0180165
0.153403
-0.0176482
0.145836
-0.0172024
0.138698
-0.0166703
0.131959
-0.0160456
0.125598
-0.0153201
0.119565
-0.0144697
0.113875
-0.0134992
0.108509
-0.0123786
0.103404
-0.0110703
0.0984071
-0.00899461
0.0919871
-0.00533273
0.0786233
0.0428619
0.00182013
0.969287
-0.000450991
0.949583
-0.00318953
0.907481
-0.00546275
0.864857
-0.00763337
0.825007
-0.00974535
0.78674
-0.011743
0.750122
-0.0134763
0.715125
-0.0148063
0.681399
-0.0158337
0.649253
-0.0166054
0.618391
-0.0175004
0.58915
-0.0184607
0.561007
-0.0192103
0.534001
-0.0199206
0.508264
-0.0206435
0.483587
-0.0212944
0.459937
-0.0218768
0.437222
-0.0223907
0.415535
-0.0228487
0.394768
-0.023248
0.374933
-0.0236006
0.356023
-0.0239654
0.337977
-0.0245978
0.320791
-0.0252419
0.304389
-0.0254787
0.28859
-0.0255516
0.273544
-0.0256355
0.25932
-0.0255497
0.245806
-0.025348
0.233002
-0.0252047
0.220943
-0.0250526
0.209511
-0.0248257
0.198669
-0.0245285
0.188396
-0.0242049
0.178699
-0.0238354
0.169565
-0.0233665
0.160954
-0.0228182
0.152854
-0.0221946
0.145212
-0.0214801
0.137984
-0.0206656
0.131144
-0.0197329
0.124665
-0.018683
0.118515
-0.0175227
0.112714
-0.0162487
0.107234
-0.0149223
0.102078
-0.0131592
0.096644
-0.0105712
0.089399
-0.00610621
0.0741583
0.0367557
0.000883044
0.968404
-0.00214926
0.952615
-0.00517065
0.910502
-0.00761678
0.867303
-0.010204
0.827594
-0.0123547
0.788891
-0.0144883
0.752255
-0.0165058
0.717142
-0.0186004
0.683493
-0.0206762
0.651329
-0.0225964
0.620311
-0.0241761
0.59073
-0.0255277
0.562359
-0.0268666
0.53534
-0.0280029
0.509401
-0.0289545
0.484539
-0.0297714
0.460753
-0.0304919
0.437942
-0.0311178
0.416161
-0.0316534
0.395303
-0.0320896
0.375369
-0.0324094
0.356343
-0.0325383
0.338106
-0.0323041
0.320556
-0.0319424
0.304027
-0.0318893
0.288537
-0.0318795
0.273534
-0.0317459
0.259186
-0.0316754
0.245736
-0.0316093
0.232936
-0.0313673
0.220701
-0.0310132
0.209157
-0.0306093
0.198265
-0.0301539
0.18794
-0.0295956
0.178141
-0.0289488
0.168918
-0.0282556
0.16026
-0.0274779
0.152077
-0.0265966
0.144331
-0.0256136
0.137001
-0.0245279
0.130058
-0.0233477
0.123485
-0.0220731
0.117241
-0.0206823
0.111324
-0.0191694
0.105722
-0.0176029
0.100511
-0.0154413
0.0944824
-0.0122635
0.0862212
-0.00688788
0.0687827
0.0298678
-9.45164e-05
0.968498
-0.00422901
0.95675
-0.00815879
0.914432
-0.0116973
0.870842
-0.0146903
0.830587
-0.0175841
0.791785
-0.0201459
0.754817
-0.0222191
0.719215
-0.0240858
0.68536
-0.0254172
0.65266
-0.0267771
0.621671
-0.0281538
0.592106
-0.0294799
0.563685
-0.0305291
0.53639
-0.0315633
0.510435
-0.0325826
0.485558
-0.0334907
0.461661
-0.0343
0.438752
-0.0349997
0.416861
-0.0356077
0.395911
-0.0361294
0.375891
-0.0365899
0.356804
-0.0370866
0.338603
-0.0378053
0.321275
-0.0384378
0.304659
-0.0385759
0.288675
-0.0385025
0.273461
-0.0384128
0.259097
-0.0381177
0.245441
-0.0376564
0.232475
-0.0372122
0.220257
-0.0367406
0.208685
-0.0361663
0.197691
-0.0354774
0.187251
-0.0347379
0.177402
-0.0339354
0.168115
-0.0330097
0.159335
-0.0319817
0.151049
-0.0308628
0.143212
-0.0296472
0.135785
-0.0283334
0.128744
-0.0269067
0.122058
-0.0253736
0.115708
-0.0237712
0.109721
-0.0221693
0.10412
-0.0202082
0.0985502
-0.0176791
0.0919533
-0.0138572
0.0823993
-0.0075633
0.0624888
0.0223045
-0.000725472
0.969224
-0.00555167
0.961576
-0.00980864
0.918689
-0.0135658
0.874599
-0.0168898
0.833911
-0.0197907
0.794686
-0.0224246
0.757451
-0.025259
0.72205
-0.0278315
0.687932
-0.0304668
0.655295
-0.0327585
0.623963
-0.0347484
0.594096
-0.0365982
0.565535
-0.0384192
0.538211
-0.0399208
0.511936
-0.0411968
0.486834
-0.0423079
0.462773
-0.0432812
0.439725
-0.0441123
0.417692
-0.0448039
0.396603
-0.0453491
0.376436
-0.0457135
0.357168
-0.0457835
0.338673
-0.0454263
0.320918
-0.0449764
0.304209
-0.0448097
0.288508
-0.0446506
0.273302
-0.0443073
0.258753
-0.0439851
0.245118
-0.043661
0.232151
-0.0431345
0.219731
-0.0424378
0.207989
-0.0416535
0.196906
-0.0408065
0.186404
-0.0398362
0.176431
-0.0387512
0.167031
-0.0376081
0.158191
-0.0363787
0.149819
-0.0350465
0.14188
-0.0336132
0.134352
-0.0320814
0.127213
-0.030476
0.120453
-0.0288173
0.114049
-0.0270761
0.10798
-0.0253166
0.10236
-0.0229553
0.0961889
-0.0199637
0.0889618
-0.0152206
0.0776562
-0.00790998
0.0551782
0.0143945
-0.001591
0.970815
-0.00737391
0.967359
-0.0123401
0.923655
-0.016812
0.879071
-0.0207377
0.837837
-0.0243793
0.798327
-0.0276271
0.760699
-0.0301914
0.724614
-0.0325674
0.690308
-0.0345708
0.657299
-0.0364373
0.625829
-0.0383051
0.595964
-0.0398937
0.567123
-0.0412811
0.539598
-0.0426889
0.513344
-0.0440276
0.488173
-0.045231
0.463976
-0.0463035
0.440798
-0.0472282
0.418617
-0.0480174
0.397392
-0.0486798
0.377099
-0.0492488
0.357737
-0.0498431
0.339267
-0.05062
0.321695
-0.0512279
0.304817
-0.0512622
0.288542
-0.0510129
0.273052
-0.0507289
0.258469
-0.0502057
0.244595
-0.0494377
0.231383
-0.0486454
0.218938
-0.0478286
0.207172
-0.046898
0.195976
-0.0458166
0.185323
-0.0446699
0.175285
-0.0434669
0.165828
-0.0421377
0.156862
-0.0407012
0.148383
-0.0391768
0.140356
-0.0375693
0.132745
-0.0358853
0.125529
-0.0341064
0.118674
-0.0322364
0.112179
-0.0304688
0.106213
-0.0283654
0.100257
-0.0257526
0.0935761
-0.0220178
0.0852269
-0.0157992
0.0714376
-0.00650943
0.0458884
0.00788506
-0.00231905
0.973134
-0.0084736
0.973513
-0.0134817
0.928663
-0.0180482
0.883637
-0.022162
0.841951
-0.0257736
0.801939
-0.0292434
0.764169
-0.032639
0.72801
-0.0357603
0.69343
-0.0387581
0.660296
-0.0416495
0.628721
-0.044126
0.598441
-0.046619
0.569616
-0.0489077
0.541887
-0.050821
0.515257
-0.0524743
0.489826
-0.0539346
0.465436
-0.0552127
0.442076
-0.0563031
0.419707
-0.057201
0.39829
-0.0578978
0.377795
-0.0583501
0.358189
-0.0584362
0.339353
-0.0580199
0.321279
-0.0574429
0.30424
-0.0571184
0.288218
-0.0568161
0.27275
-0.056262
0.257915
-0.0556614
0.243995
-0.055065
0.230787
-0.0542635
0.218137
-0.0532374
0.206146
-0.0520848
0.194823
-0.0508799
0.184118
-0.0495574
0.173962
-0.0481012
0.164371
-0.0465838
0.155345
-0.0449946
0.146794
-0.0433215
0.138683
-0.0415658
0.130989
-0.0397262
0.123689
-0.0378353
0.116783
-0.0359831
0.110327
-0.0340425
0.104272
-0.0315228
0.0977371
-0.0284054
0.0904588
-0.0235923
0.0804138
-0.0154772
0.0633224
-0.00429602
0.0347073
0.00358905
-0.00343352
0.976567
-0.00979246
0.979872
-0.0153774
0.934248
-0.020699
0.888959
-0.0253217
0.846574
-0.0296387
0.806256
-0.0332706
0.767801
-0.0365275
0.731267
-0.0393798
0.696282
-0.041942
0.662859
-0.0442972
0.631076
-0.0466284
0.600772
-0.0486569
0.571645
-0.050523
0.543753
-0.0523877
0.517122
-0.0541276
0.491566
-0.0557126
0.467021
-0.0571287
0.443492
-0.0583624
0.420941
-0.0594183
0.399346
-0.0602925
0.37867
-0.0610228
0.35892
-0.0617251
0.340056
-0.0625611
0.322115
-0.0632124
0.304892
-0.0632102
0.288216
-0.0627941
0.272334
-0.0623255
0.257447
-0.0616211
0.24329
-0.0605902
0.229756
-0.0594675
0.217014
-0.0583317
0.20501
-0.0570993
0.193591
-0.0556923
0.182711
-0.0542062
0.172476
-0.0526879
0.162853
-0.0510592
0.153716
-0.0493293
0.145064
-0.0475191
0.136872
-0.0456405
0.12911
-0.0437136
0.121762
-0.0417614
0.114831
-0.0398642
0.10843
-0.0375038
0.101912
-0.0346712
0.0949045
-0.0306479
0.0864355
-0.0243824
0.0741483
-0.0149308
0.0538708
-0.00265021
0.0224267
0.000938835
-0.00332966
0.979897
-0.00982189
0.986364
-0.0154796
0.939906
-0.0206404
0.89412
-0.0251798
0.851113
-0.0293886
0.810465
-0.0333974
0.77181
-0.0373163
0.735186
-0.0410967
0.700062
-0.0448295
0.666592
-0.048214
0.63446
-0.0512837
0.603841
-0.0543765
0.574737
-0.0572212
0.546598
-0.0596819
0.519583
-0.0618723
0.493756
-0.06382
0.468969
-0.0655317
0.445203
-0.0670024
0.422411
-0.068227
0.40057
-0.0691903
0.379633
-0.069848
0.359577
-0.0700809
0.340288
-0.0697253
0.321759
-0.0690839
0.30425
-0.0686279
0.28776
-0.0682439
0.27195
-0.0675553
0.256758
-0.0667067
0.242441
-0.0658675
0.228916
-0.0648595
0.216006
-0.0635836
0.203734
-0.0621282
0.192135
-0.0606384
0.181221
-0.0590638
0.170901
-0.057344
0.161133
-0.0555607
0.151933
-0.0537232
0.143226
-0.0518255
0.134975
-0.0498675
0.127152
-0.0478648
0.119759
-0.0459967
0.112963
-0.043863
0.106296
-0.0412662
0.0993149
-0.0379234
0.0915616
-0.0329611
0.0814732
-0.0247556
0.0659428
-0.0124919
0.0416071
-0.00156869
0.0115035
-0.000629859
-0.00401422
0.983911
-0.0105005
0.992851
-0.016321
0.945726
-0.0221123
0.899911
-0.0270552
0.856056
-0.0316184
0.815028
-0.0358383
0.77603
-0.0395907
0.738938
-0.0430426
0.703514
-0.0460822
0.669631
-0.0491671
0.637545
-0.052161
0.606835
-0.0547799
0.577356
-0.0572209
0.549039
-0.0596702
0.522032
-0.0619946
0.496081
-0.0641479
0.471122
-0.0660859
0.447142
-0.0678
0.424125
-0.0692828
0.402053
-0.0705242
0.380874
-0.0715483
0.360602
-0.0724562
0.341196
-0.0734394
0.322742
-0.0742655
0.305076
-0.0744003
0.287894
-0.0739188
0.271468
-0.0733113
0.256151
-0.0725187
0.241649
-0.0713394
0.227737
-0.0699598
0.214627
-0.0685532
0.202327
-0.0670973
0.190679
-0.0654652
0.179589
-0.0637293
0.169166
-0.0619853
0.159389
-0.0601644
0.150112
-0.0582632
0.141325
-0.0562955
0.133007
-0.0542767
0.125134
-0.0524079
0.117891
-0.0503925
0.110947
-0.0479527
0.103856
-0.0449907
0.0963529
-0.0409042
0.0874751
-0.0342925
0.0748615
-0.0236239
0.0552742
-0.00844375
0.0264269
-0.00107337
0.00413312
-0.00170323
-0.00303116
0.986942
-0.00987525
0.999695
-0.0152013
0.951052
-0.0202661
0.904976
-0.0249833
0.860773
-0.0296514
0.819696
-0.0340896
0.780468
-0.0384393
0.743288
-0.0429063
0.707981
-0.0472547
0.673979
-0.051246
0.641537
-0.0549839
0.610573
-0.0587795
0.581152
-0.0624024
0.552661
-0.0656145
0.525244
-0.0685407
0.499007
-0.0711902
0.473772
-0.0735623
0.449514
-0.0756426
0.426206
-0.077417
0.403828
-0.0788727
0.38233
-0.0799607
0.36169
-0.0805724
0.341808
-0.0805068
0.322677
-0.0799595
0.304529
-0.0794881
0.287423
-0.0791476
0.271128
-0.0784825
0.255486
-0.0774856
0.240652
-0.076443
0.226695
-0.0752917
0.213475
-0.0738693
0.200905
-0.0721947
0.189005
-0.0704826
0.177877
-0.0687408
0.167424
-0.0668602
0.157509
-0.0649124
0.148164
-0.0629312
0.139344
-0.0609293
0.131005
-0.0590334
0.123238
-0.0570909
0.115948
-0.0548023
0.108659
-0.0521907
0.101244
-0.0487213
0.0928836
-0.0430679
0.0818217
-0.0333145
0.0651082
-0.018306
0.0402656
-0.00442496
0.0125459
-0.00035441
6.25679e-05
-0.00205764
-0.00244931
0.989392
-0.00910527
1.00635
-0.0148625
0.956809
-0.0203041
0.910417
-0.0252703
0.865739
-0.030032
0.824458
-0.0346166
0.785052
-0.0387056
0.747377
-0.0424519
0.711727
-0.0462697
0.677797
-0.0501248
0.645392
-0.05389
0.614338
-0.0572568
0.584519
-0.060453
0.555858
-0.0637136
0.528505
-0.0668572
0.50215
-0.0698278
0.476742
-0.0725707
0.452256
-0.0750311
0.428666
-0.0772019
0.405998
-0.0790692
0.384197
-0.0806392
0.36326
-0.0819872
0.343156
-0.0833102
0.324
-0.0845173
0.305736
-0.0850281
0.287934
-0.0847043
0.270804
-0.0840872
0.254869
-0.083318
0.239883
-0.0821407
0.225517
-0.0806107
0.211945
-0.0789614
0.199256
-0.0773174
0.187361
-0.0755378
0.176098
-0.0736126
0.165499
-0.0716935
0.15559
-0.0697524
0.146223
-0.0677765
0.137368
-0.065834
0.129063
-0.063928
0.121332
-0.0617735
0.113794
-0.059325
0.10621
-0.0561581
0.0980774
-0.0511662
0.0878916
-0.0425142
0.0731698
-0.0287224
0.0513163
-0.0111635
0.0227067
-0.00225681
0.00363926
-2.69218e-05
-0.00216732
-0.00208456
-0.00129067
0.990682
-0.00645398
1.01151
-0.0116915
0.962047
-0.0166243
0.91535
-0.0212919
0.870407
-0.0259457
0.829111
-0.0304463
0.789553
-0.0354429
0.752373
-0.0405159
0.716801
-0.0453643
0.682646
-0.0499091
0.649937
-0.0544006
0.61883
-0.0591084
0.589227
-0.0636392
0.560388
-0.0678311
0.532697
-0.0717509
0.50607
-0.075393
0.480385
-0.0787377
0.455601
-0.0817527
0.431681
-0.0844034
0.408649
-0.0866768
0.386471
-0.088528
0.365111
-0.0898675
0.344495
-0.0904775
0.32461
-0.090318
0.305577
-0.0900226
0.287638
-0.0898852
0.270667
-0.0894551
0.254439
-0.0884946
0.238922
-0.0873153
0.224338
-0.0860496
0.21068
-0.0845596
0.197766
-0.0827269
0.185528
-0.0807818
0.174153
-0.0788735
0.16359
-0.0768778
0.153594
-0.0748292
0.144175
-0.0728024
0.135341
-0.0708763
0.127137
-0.0688131
0.119268
-0.0664514
0.111432
-0.0634912
0.10325
-0.0590022
0.0935884
-0.0512245
0.0801139
-0.0381997
0.060145
-0.019289
0.0324056
-0.00515453
0.00857221
-0.000716478
-0.000798796
0.00019237
-0.00307617
-0.00189219
-4.679e-06
0.990687
-0.0047077
1.01622
-0.00953211
0.966871
-0.0147853
0.920603
-0.0194799
0.875101
-0.0243572
0.833989
-0.0290367
0.794232
-0.0334081
0.756745
-0.0375635
0.720956
-0.0419849
0.687067
-0.0467403
0.654692
-0.0513146
0.623404
-0.0554874
0.593399
-0.059722
0.564623
-0.0640608
0.537035
-0.0682605
0.51027
-0.0722908
0.484415
-0.076125
0.459435
-0.0796959
0.435252
-0.0829004
0.411854
-0.0857302
0.3893
-0.088173
0.367554
-0.0902817
0.346604
-0.0922351
0.326563
-0.094112
0.307453
-0.0953402
0.288867
-0.0955384
0.270865
-0.0951142
0.254015
-0.0944748
0.238283
-0.0934525
0.223316
-0.0919127
0.20914
-0.0900318
0.195885
-0.0881437
0.18364
-0.0862071
0.172216
-0.0840739
0.161457
-0.0819334
0.151453
-0.0798884
0.14213
-0.0779182
0.133371
-0.0758825
0.125101
-0.0735596
0.116945
-0.0707178
0.10859
-0.0666318
0.0991638
-0.0595374
0.086494
-0.0470295
0.0676061
-0.0276438
0.0407593
-0.00965864
0.0144205
-0.00221455
0.00112811
-3.85423e-05
-0.0029748
0.000226048
-0.00334076
-0.00166614
0.00160917
0.989078
-0.00189781
1.01972
-0.00563529
0.970609
-0.00969988
0.924668
-0.0138347
0.879236
-0.0182979
0.838452
-0.0230949
0.799029
-0.0283274
0.761977
-0.0336783
0.726307
-0.0389948
0.692383
-0.0440508
0.659748
-0.0494264
0.62878
-0.0551458
0.599119
-0.0606837
0.570161
-0.0659368
0.542289
-0.0710308
0.515364
-0.0759447
0.489329
-0.0805994
0.46409
-0.0849085
0.439561
-0.0888581
0.415803
-0.0923632
0.392806
-0.0953841
0.370575
-0.097855
0.349075
-0.0995895
0.328298
-0.100294
0.308158
-0.100468
0.289041
-0.100736
0.271133
-0.100779
0.254057
-0.100135
0.237639
-0.0989562
0.222137
-0.0975643
0.207748
-0.0960196
0.19434
-0.0940762
0.181697
-0.0918163
0.169956
-0.0895923
0.159233
-0.087391
0.149252
-0.0852279
0.139967
-0.0830336
0.131176
-0.0806463
0.122714
-0.0778404
0.114139
-0.0739992
0.104749
-0.0674838
0.0926485
-0.0553872
0.0743974
-0.0357096
0.0479284
-0.0150591
0.0201088
-0.0042577
0.00361912
-0.000722595
-0.00240699
0.000223885
-0.00392128
0.000212921
-0.0033298
-0.00145322
0.00268752
0.98639
2.96635e-05
1.02238
-0.00334752
0.973986
-0.00723133
0.928552
-0.0111226
0.883127
-0.0154947
0.842824
-0.0195836
0.803118
-0.0238934
0.766287
-0.0286173
0.731031
-0.0336059
0.697372
-0.0389775
0.66512
-0.0442019
0.634004
-0.0492431
0.60416
-0.0546154
0.575533
-0.0601425
0.547816
-0.0656293
0.520851
-0.0710252
0.494724
-0.0762267
0.469292
-0.0811897
0.444524
-0.0858638
0.420477
-0.090095
0.397037
-0.0938755
0.374355
-0.0971594
0.352359
-0.100089
0.331227
-0.102891
0.31096
-0.105274
0.291424
-0.106527
0.272385
-0.106653
0.254183
-0.106283
0.237269
-0.105548
0.221402
-0.104215
0.206415
-0.102189
0.192314
-0.0999071
0.179415
-0.0976506
0.167699
-0.0952047
0.156787
-0.0927257
0.146773
-0.0902095
0.13745
-0.0876602
0.128627
-0.0848384
0.119892
-0.081121
0.110422
-0.0749598
0.0985876
-0.06329
0.0809787
-0.0433481
0.0544554
-0.0207316
0.0253119
-0.00703809
0.00641528
-0.00213976
-0.0012792
-0.000629454
-0.0039173
-0.000127974
-0.00442276
2.73129e-05
-0.00348508
-0.00142591
0.00580647
0.980584
0.00396692
1.02422
0.00201609
0.975937
-0.000689086
0.931257
-0.00415141
0.88659
-0.00821789
0.84689
-0.012941
0.807841
-0.0178718
0.771218
-0.0232103
0.736369
-0.0286124
0.702774
-0.0341039
0.670611
-0.0402683
0.640168
-0.0468039
0.610696
-0.0532689
0.581998
-0.0596654
0.554212
-0.0660653
0.527251
-0.0723757
0.501035
-0.078533
0.475449
-0.0844779
0.450469
-0.0900795
0.426079
-0.0952973
0.402254
-0.0999634
0.379021
-0.104037
0.356432
-0.107371
0.334561
-0.109568
0.313157
-0.110691
0.292547
-0.111664
0.273358
-0.112442
0.254962
-0.112519
0.237345
-0.111683
0.220566
-0.110216
0.204948
-0.10854
0.190637
-0.106508
0.177383
-0.103847
0.165039
-0.10099
0.15393
-0.0981525
0.143935
-0.0951578
0.134456
-0.0919872
0.125457
-0.0880374
0.115942
-0.0818861
0.104271
-0.0706177
0.0873192
-0.050375
0.060736
-0.0261804
0.0302608
-0.010173
0.0093045
-0.00386706
0.000109331
-0.00174308
-0.00340318
-0.000952062
-0.00470832
-0.000566348
-0.00480847
-0.000235362
-0.00381607
-0.00166127
0.00573147
0.974853
0.00567786
1.02428
0.00445564
0.977159
0.00183977
0.933873
-0.00142083
0.88985
-0.00428384
0.849753
-0.00791372
0.811471
-0.0123326
0.775637
-0.0168254
0.740862
-0.0218975
0.707846
-0.0275332
0.676247
-0.0331584
0.645794
-0.0388844
0.616422
-0.0452075
0.588321
-0.0518244
0.560829
-0.0585934
0.53402
-0.0654479
0.507889
-0.0722603
0.482261
-0.0789115
0.45712
-0.0852873
0.432455
-0.0913034
0.408271
-0.0968829
0.384601
-0.101952
0.361501
-0.106365
0.338975
-0.110461
0.317253
-0.1144
0.296486
-0.117166
0.276124
-0.118513
0.256309
-0.118797
0.23763
-0.118491
0.22026
-0.117645
0.204102
-0.115822
0.188814
-0.113101
0.174662
-0.11027
0.162207
-0.107104
0.150765
-0.103505
0.140336
-0.099721
0.130672
-0.0950871
0.120823
-0.0883575
0.109212
-0.0770235
0.0929368
-0.0567168
0.0670126
-0.0311617
0.0351809
-0.0127295
0.0118287
-0.00469553
0.0012705
-0.00171479
-0.00287141
-0.000637928
-0.00448004
-0.000342468
-0.00500378
-0.000321286
-0.00482966
-0.000224674
-0.00391268
-0.00188594
0.00975041
0.965102
0.00985009
1.02418
0.00989549
0.977114
0.0085082
0.93526
0.00606569
0.892293
0.00226691
0.853552
-0.00154531
0.815284
-0.00570809
0.779799
-0.0106597
0.745814
-0.0159132
0.7131
-0.0215774
0.681911
-0.0279248
0.652141
-0.034843
0.62334
-0.0419259
0.595404
-0.0492314
0.568134
-0.056781
0.541569
-0.0644679
0.515576
-0.0721959
0.489989
-0.0798603
0.464784
-0.0873693
0.439964
-0.0945903
0.415491
-0.101381
0.391391
-0.107517
0.367637
-0.112906
0.344364
-0.117273
0.32162
-0.120143
0.299356
-0.122173
0.278154
-0.123988
0.258124
-0.125281
0.238923
-0.125477
0.220456
-0.124343
0.202968
-0.122487
0.186958
-0.120436
0.172611
-0.117513
0.159284
-0.11358
0.146832
-0.108876
0.135632
-0.103289
0.125084
-0.0956298
0.113163
-0.0835352
0.0971177
-0.0622895
0.0716911
-0.0348616
0.0395847
-0.0138962
0.0142154
-0.00306953
0.00100201
0.00172832
-0.00352736
0.00345075
-0.00459384
0.00354152
-0.00457081
0.00269777
-0.00416003
0.00146488
-0.00359677
0.000409895
-0.00285769
-0.00147605
0.00938256
0.95572
0.0103098
1.02325
0.00992581
0.977498
0.00893652
0.936249
0.00780212
0.893427
0.00579218
0.855562
0.00308806
0.817988
-0.000415382
0.783303
-0.00426655
0.749665
-0.00898714
0.71782
-0.0144143
0.687338
-0.0199598
0.657687
-0.0259525
0.629332
-0.0326697
0.602122
-0.039983
0.575448
-0.0477371
0.549324
-0.0558549
0.523694
-0.0641901
0.498325
-0.0725911
0.473185
-0.0808831
0.448256
-0.0889339
0.423542
-0.0966341
0.399092
-0.103845
0.374848
-0.110434
0.350953
-0.116403
0.327589
-0.122096
0.305049
-0.127003
0.283061
-0.130319
0.26144
-0.132013
0.240616
-0.132504
0.220948
-0.132356
0.20282
-0.131376
0.185978
-0.128771
0.170006
-0.124914
0.155428
-0.1203
0.142217
-0.114146
0.129478
-0.10537
0.116308
-0.0913885
0.0991819
-0.0677976
0.0735268
-0.0374051
0.0412987
-0.0121192
0.0142988
0.00199817
9.80534e-05
0.00848466
-0.00548448
0.010613
-0.00565569
0.0105255
-0.00450631
0.00915333
-0.00319868
0.00684877
-0.00185546
0.00408277
-0.000830775
0.00147359
-0.000248504
-2.46139e-06
0.0117356
0.943984
0.0153437
1.01964
0.0155758
0.977266
0.014583
0.937242
0.0137658
0.894245
0.0115429
0.857785
0.00897426
0.820556
0.0055195
0.786758
0.00129623
0.753888
-0.00315991
0.722277
-0.00816087
0.692339
-0.014303
0.663829
-0.0211452
0.636175
-0.0282619
0.609238
-0.035906
0.583092
-0.0441231
0.557541
-0.0527963
0.532367
-0.0618367
0.507365
-0.0711167
0.482465
-0.0805193
0.457658
-0.0898592
0.432882
-0.0989126
0.408145
-0.107543
0.383479
-0.115513
0.358923
-0.12251
0.334586
-0.128021
0.31056
-0.132002
0.287041
-0.135258
0.264696
-0.137891
0.24325
-0.139903
0.22296
-0.140292
0.203209
-0.138594
0.18428
-0.136285
0.167697
-0.132874
0.152017
-0.126835
0.136178
-0.117105
0.119748
-0.100871
0.100075
-0.0736839
0.0719949
-0.0394214
0.0392643
-0.010536
0.0124132
0.0064048
-0.00264196
0.0140389
-0.00753604
0.0157715
-0.00721706
0.01523
-0.00511424
0.0135383
-0.00281461
0.0110612
-0.000721564
0.00808135
0.00112439
0.00486281
0.00238776
0.00182164
0.00279267
0.00181918
0.00991772
0.934066
0.0119635
1.01759
0.0144443
0.974785
0.0145886
0.937098
0.0141965
0.894637
0.0135181
0.858463
0.0118271
0.822247
0.00992892
0.788656
0.007154
0.756663
0.00326113
0.726169
-0.00125072
0.696851
-0.00606255
0.66864
-0.0115992
0.641711
-0.0181831
0.615822
-0.025518
0.590427
-0.0335787
0.565601
-0.0423584
0.541147
-0.0517426
0.516749
-0.0615722
0.492295
-0.0716057
0.467692
-0.0816641
0.442941
-0.0916062
0.418087
-0.101231
0.393104
-0.110347
0.368039
-0.118814
0.343052
-0.126682
0.318429
-0.134163
0.294522
-0.140122
0.270655
-0.144314
0.247442
-0.146593
0.225239
-0.147312
0.203929
-0.147771
0.184739
-0.145969
0.165895
-0.139877
0.145924
-0.129245
0.125547
-0.111155
0.101657
-0.0797225
0.0686428
-0.0434924
0.0357647
-0.015294
0.011066
0.000604169
-0.00348496
0.00781352
-0.00985132
0.0107093
-0.0104318
0.01153
-0.00803776
0.0110192
-0.00460351
0.00962434
-0.00141971
0.00761143
0.00129134
0.00530005
0.00343577
0.00295642
0.00473138
0.000996246
0.00475285
0.00281542
0.0130657
0.921
0.0159624
1.0147
0.0178156
0.972931
0.0186022
0.936311
0.01841
0.894829
0.0177117
0.859162
0.0159973
0.823962
0.0137073
0.790946
0.0110563
0.759314
0.00799583
0.72923
0.00406084
0.700786
-0.00116076
0.673862
-0.00713845
0.647689
-0.0136414
0.622325
-0.0209213
0.597707
-0.0290019
0.573682
-0.0379202
0.550065
-0.0476193
0.526448
-0.0579971
0.502673
-0.0689067
0.478601
-0.0801186
0.454153
-0.0913556
0.429324
-0.102425
0.404173
-0.113174
0.378789
-0.123254
0.353132
-0.132074
0.327248
-0.139056
0.301504
-0.144805
0.276403
-0.149215
0.251852
-0.152733
0.228757
-0.156328
0.207523
-0.156224
0.184635
-0.15061
0.160282
-0.140271
0.135584
-0.119943
0.105219
-0.0876013
0.0693152
-0.0568055
0.037847
-0.0359216
0.0148809
-0.0262947
0.00143901
-0.0218427
-0.00793692
-0.0177137
-0.0139804
-0.0128711
-0.0152744
-0.0076634
-0.0132454
-0.00367258
-0.00859433
-0.00148905
-0.00360323
-0.000672919
0.000475212
-0.000462512
0.00322537
-0.000465419
0.00473429
-0.00038323
0.00467066
0.00243219
0.00971701
0.911283
0.0138639
1.01055
0.0147808
0.972015
0.0160465
0.935046
0.0167324
0.894143
0.0171715
0.858722
0.0173793
0.823754
0.0164187
0.791906
0.0149393
0.760793
0.0123812
0.731788
0.00945651
0.70371
0.00614294
0.677176
0.00176018
0.652072
-0.00389077
0.627976
-0.0104964
0.604312
-0.0180682
0.581254
-0.0266284
0.558626
-0.036249
0.536069
-0.046828
0.513252
-0.0580751
0.489849
-0.0697122
0.46579
-0.0816258
0.441238
-0.093617
0.416164
-0.105479
0.39065
-0.116815
0.364469
-0.127537
0.33797
-0.137686
0.311653
-0.146647
0.285364
-0.154432
0.259636
-0.160213
0.234538
-0.162432
0.209742
-0.15943
0.181634
-0.150322
0.151173
-0.130235
0.115497
-0.102445
0.0774294
-0.0799771
0.046847
-0.0680815
0.0259515
-0.063702
0.0105014
-0.0587618
-0.0035012
-0.0527409
-0.0139578
-0.0451216
-0.0215997
-0.0359097
-0.0244863
-0.0259097
-0.0232454
-0.0165894
-0.0179146
-0.00947099
-0.0107216
-0.00514577
-0.00385001
-0.00306524
0.00114484
-0.00172516
0.00339421
-0.000702824
0.00364832
0.00172937
0.0124588
0.898825
0.0185421
1.00447
0.0177282
0.972829
0.0191589
0.933615
0.0198909
0.893411
0.0190973
0.859516
0.018952
0.823899
0.0181193
0.792739
0.0169322
0.76198
0.0155058
0.733214
0.0128111
0.706405
0.00904465
0.680942
0.00475745
0.656359
-0.000232773
0.632966
-0.00642548
0.610505
-0.0136042
0.588433
-0.0217963
0.566818
-0.0313421
0.545615
-0.0420245
0.523934
-0.0538249
0.501649
-0.0663269
0.478292
-0.0793247
0.454235
-0.092699
0.429538
-0.106274
0.404225
-0.119336
0.377531
-0.131838
0.350473
-0.142466
0.322281
-0.151477
0.294375
-0.159377
0.267537
-0.163671
0.238832
-0.162321
0.208392
-0.15719
0.176503
-0.138496
0.132479
-0.116836
0.0938381
-0.100712
0.061305
-0.0955622
0.0416972
-0.0925686
0.0229579