/*--------------------------------*- C++ -*----------------------------------*\
| =========                 |                                                 |
| \\      /  F ield         | OpenFOAM: The Open Source CFD Toolbox           |
|  \\    /   O peration     | Version:  v1912                                 |
|   \\  /    A nd           | Website:  www.openfoam.com                      |
|    \\/     M anipulation  |                                                 |
\*---------------------------------------------------------------------------*/
FoamFile
{
    version     2.0;
    format      ascii;
    class       volVectorField;
    location    "0.17";
    object      U;
}
// * * * * * * * * * * * * * * * * * * * * * * * * * * * * * * * * * * * * * //

dimensions      [0 1 -1 0 0 0 0];


internalField   nonuniform List<vector> 
6600
(
(39.8414 -0.0480224 0)
(40.0996 -0.0420854 9.1603e-21)
(40.1713 0.0605315 6.43913e-19)
(40.2318 0.167285 0)
(40.282 0.280673 7.79326e-19)
(40.3349 0.426436 2.59401e-20)
(40.38 0.581141 -2.88302e-20)
(40.4408 0.767677 -3.24544e-20)
(40.4683 0.927312 6.87271e-19)
(40.5071 1.14079 -1.17582e-19)
(40.5464 1.34622 0)
(40.5535 1.59299 -9.24797e-19)
(40.5217 1.85832 0)
(40.5399 2.09705 -1.03338e-18)
(40.4828 2.37108 -1.5543e-18)
(40.4307 2.64718 -8.65292e-19)
(40.3686 2.94089 0)
(40.2838 3.2458 0)
(40.187 3.5697 1.61024e-18)
(40.0658 3.91125 -1.49405e-18)
(39.9349 4.26915 -2.30424e-19)
(39.789 4.65213 -9.09163e-19)
(39.6382 5.05186 -1.75066e-18)
(39.466 5.47053 4.10234e-19)
(39.2349 5.86226 1.54919e-18)
(39.0545 6.30518 0)
(38.8692 6.80862 4.0256e-18)
(38.6017 7.32617 0)
(38.3093 7.85869 -2.15025e-18)
(38.041 8.46495 -1.44498e-18)
(37.7566 9.10672 -3.34479e-19)
(37.4475 9.7683 -1.88764e-18)
(37.1464 10.4752 -7.89652e-19)
(36.8471 11.2293 1.67555e-18)
(36.5258 12.0351 3.42558e-19)
(36.2049 12.8827 2.076e-18)
(35.9102 13.8033 3.99985e-18)
(35.6236 14.791 4.07138e-18)
(35.3567 15.8395 -3.03964e-18)
(35.1099 16.9631 3.28548e-18)
(34.8802 18.1598 1.77868e-18)
(34.6929 19.4446 0)
(34.5381 20.8027 -5.79184e-19)
(34.4164 22.2522 1.38542e-18)
(34.345 23.7723 0)
(34.3561 25.4455 -3.10417e-19)
(34.3754 27.0708 -9.88783e-19)
(34.6662 29.1383 0)
(33.0854 29.7996 0)
(23.6035 22.6849 -1.2883e-18)
(39.7453 -0.032557 5.3748e-19)
(40.1819 -0.0582061 -5.31129e-19)
(40.2458 0.082216 0)
(40.303 0.222694 -9.84279e-21)
(40.3516 0.380167 6.61147e-19)
(40.3965 0.545274 2.35637e-20)
(40.4693 0.737483 -6.26004e-23)
(40.519 0.908967 -2.90027e-20)
(40.5859 1.13034 0)
(40.6108 1.33688 -1.14044e-18)
(40.616 1.54791 -4.15989e-20)
(40.6328 1.75804 7.22394e-19)
(40.6555 1.97414 7.81117e-19)
(40.6477 2.24077 6.35579e-19)
(40.6571 2.49961 -4.385e-21)
(40.6361 2.78159 8.88964e-20)
(40.5936 3.08693 -8.05566e-19)
(40.5319 3.40385 0)
(40.4573 3.74012 0)
(40.3599 4.09459 1.54598e-18)
(40.2501 4.46503 2.23262e-19)
(40.118 4.859 -1.20643e-18)
(39.9575 5.27092 -1.13811e-18)
(39.774 5.70908 -1.34887e-18)
(39.6246 6.24395 -1.15323e-18)
(39.4038 6.76546 -4.88952e-19)
(39.1263 7.26123 -6.55871e-19)
(38.9023 7.81684 -6.74029e-19)
(38.6905 8.41915 2.13517e-18)
(38.4281 8.99907 3.00178e-19)
(38.1706 9.62577 -2.84072e-18)
(37.9258 10.317 2.65503e-18)
(37.6656 11.0334 1.96731e-18)
(37.3845 11.7889 -2.48802e-18)
(37.1162 12.5866 3.56359e-19)
(36.8655 13.4492 -2.12321e-18)
(36.623 14.3592 1.80554e-18)
(36.417 15.3248 -1.43653e-18)
(36.231 16.3526 -1.04168e-18)
(36.0666 17.4426 -1.18721e-18)
(35.9425 18.6006 0)
(35.8492 19.8257 0)
(35.805 21.1041 -2.15325e-19)
(35.8472 22.4771 1.65122e-19)
(36.0001 23.9329 -4.76979e-19)
(36.2299 25.5215 3.20517e-19)
(36.4735 27.0652 2.43259e-18)
(36.8972 28.8673 0)
(35.1894 29.1236 -3.53e-18)
(24.3547 21.4645 1.47899e-18)
(39.6727 -0.0264889 -5.72312e-20)
(40.3137 -0.0588858 5.41124e-19)
(40.355 0.113868 5.04868e-19)
(40.4259 0.259922 -3.92912e-22)
(40.4992 0.419299 -1.18313e-19)
(40.5703 0.601852 2.10017e-20)
(40.6179 0.7856 0)
(40.6866 0.99147 0)
(40.7257 1.18851 0)
(40.7783 1.43131 5.84486e-19)
(40.8367 1.688 -3.59773e-20)
(40.8406 1.97692 -7.27216e-19)
(40.8344 2.25256 -4.41575e-19)
(40.8505 2.52183 8.53118e-19)
(40.8052 2.83091 4.88824e-19)
(40.7698 3.14083 -8.2035e-20)
(40.7206 3.46937 1.59247e-18)
(40.6539 3.81047 -8.20433e-19)
(40.5738 4.17092 -9.78951e-19)
(40.4717 4.55097 0)
(40.3615 4.9478 -6.96702e-19)
(40.24 5.37003 9.6899e-19)
(40.1158 5.80784 1.15174e-18)
(39.973 6.26317 1.36587e-18)
(39.7739 6.68369 1.22804e-18)
(39.641 7.16678 -1.54295e-19)
(39.4988 7.70641 -2.52109e-19)
(39.2687 8.24931 -7.93757e-19)
(39.0318 8.821 -3.42453e-19)
(38.8256 9.47031 1.34228e-18)
(38.6063 10.1334 4.53255e-19)
(38.3723 10.8125 0)
(38.1562 11.5368 -2.32561e-18)
(37.9534 12.3025 6.39899e-19)
(37.7381 13.1109 1.40768e-18)
(37.5377 13.946 2.04764e-18)
(37.379 14.8439 -1.09239e-18)
(37.2399 15.7951 -8.37373e-19)
(37.1399 16.792 3.91259e-19)
(37.0807 17.8465 0)
(37.0598 18.9536 -2.59028e-19)
(37.1088 20.1272 0)
(37.2203 21.3514 0)
(37.3914 22.6336 6.63463e-19)
(37.6364 23.9551 4.59701e-19)
(37.9795 25.3872 -1.56965e-18)
(38.3971 26.8747 -1.6138e-18)
(38.78 28.3161 0)
(36.8071 28.0843 -2.25341e-18)
(24.633 19.8672 2.45507e-18)
(39.6272 -0.00481876 -4.83807e-19)
(40.4663 -0.0319217 3.32876e-21)
(40.4997 0.179767 -5.17892e-19)
(40.5534 0.331875 -4.25274e-19)
(40.6082 0.529415 -5.57957e-19)
(40.6657 0.730317 -2.3604e-19)
(40.7543 0.952286 -1.903e-20)
(40.8129 1.15723 0)
(40.8735 1.39775 3.21895e-19)
(40.9043 1.63789 3.8937e-19)
(40.9147 1.85351 -2.93991e-20)
(40.9581 2.09086 -3.51734e-20)
(40.976 2.35782 -3.16558e-19)
(40.9839 2.64743 -1.37001e-19)
(41.0098 2.93392 -4.82544e-20)
(40.9919 3.24945 -6.84136e-20)
(40.9667 3.58482 -6.10457e-20)
(40.9176 3.93454 9.24396e-19)
(40.8596 4.30312 1.27843e-18)
(40.7811 4.69122 0)
(40.6926 5.09638 1.28819e-19)
(40.5844 5.52618 0)
(40.4501 5.97278 0)
(40.2958 6.43852 -2.78951e-19)
(40.1843 7.01298 8.81628e-19)
(39.9926 7.56967 1.01316e-18)
(39.7573 8.10128 -2.13667e-19)
(39.5881 8.68599 1.11792e-18)
(39.4335 9.3068 0)
(39.2369 9.90759 0)
(39.0517 10.559 6.51432e-19)
(38.8869 11.2637 0)
(38.7184 11.9896 6.00395e-19)
(38.5385 12.7481 9.87304e-19)
(38.3862 13.5397 -1.78002e-18)
(38.2651 14.3876 -1.80938e-18)
(38.1642 15.2659 1.41225e-18)
(38.1164 16.1846 -5.28922e-19)
(38.1034 17.1495 2.96843e-19)
(38.1301 18.1552 3.43324e-19)
(38.2194 19.2059 -4.50306e-20)
(38.356 20.2969 0)
(38.5603 21.4121 0)
(38.8692 22.5851 -5.7574e-19)
(39.313 23.8085 -1.54213e-18)
(39.8411 25.1256 -5.91799e-19)
(40.3948 26.4734 -3.06747e-18)
(40.7346 27.5864 3.38734e-18)
(38.2384 26.8595 5.03902e-18)
(24.4451 17.9746 0)
(39.5898 0.0404147 -1.33077e-21)
(40.625 -0.0011016 2.99057e-19)
(40.6534 0.251074 3.20887e-19)
(40.7453 0.381041 4.41026e-19)
(40.8131 0.577265 0)
(40.8856 0.79521 7.12524e-20)
(40.9308 0.997399 0)
(41.003 1.22979 -1.54982e-20)
(41.0621 1.46494 -5.25885e-19)
(41.1263 1.72634 -3.84524e-19)
(41.1811 2.01787 2.18753e-20)
(41.1975 2.32472 2.6317e-20)
(41.2074 2.62475 -2.92857e-20)
(41.2199 2.93329 -3.30991e-19)
(41.1892 3.27499 -7.11637e-19)
(41.1712 3.61328 4.89448e-20)
(41.1323 3.97292 -9.63155e-19)
(41.0798 4.34588 7.65613e-20)
(41.0154 4.73766 -3.96802e-19)
(40.934 5.14966 -2.13425e-19)
(40.8457 5.57881 7.03167e-19)
(40.7512 6.03373 0)
(40.6563 6.50361 0)
(40.5454 6.98503 -3.66686e-19)
(40.3751 7.41555 -5.77798e-19)
(40.289 7.92262 6.56383e-19)
(40.1961 8.49233 -1.696e-19)
(40.015 9.05984 0)
(39.8371 9.65262 2.27212e-19)
(39.6971 10.3209 -2.53084e-19)
(39.5526 10.9952 -6.6209e-19)
(39.4033 11.6804 -7.77556e-19)
(39.2799 12.4019 3.31249e-19)
(39.1836 13.1584 -3.11408e-19)
(39.0868 13.9489 3.46516e-19)
(39.0178 14.7508 0)
(39.0053 15.6034 -3.85428e-19)
(39.0224 16.4927 -1.6315e-22)
(39.0937 17.4077 5.52189e-20)
(39.222 18.3583 -2.02652e-20)
(39.3991 19.3345 3.18656e-19)
(39.6603 20.3468 0)
(39.9991 21.384 0)
(40.4084 22.4439 -1.48459e-18)
(40.8891 23.5026 3.23231e-18)
(41.4538 24.6251 8.64789e-19)
(42.0639 25.8683 1.92888e-18)
(42.1366 26.5846 -4.1708e-18)
(38.9415 25.2773 3.94632e-19)
(23.6114 15.772 -6.88955e-18)
(39.5968 0.0582184 2.48915e-19)
(40.8151 0.0204071 -1.02198e-19)
(40.8429 0.35456 -3.27591e-19)
(40.9227 0.46618 9.508e-20)
(40.9736 0.719184 0)
(41.0372 0.91928 1.78933e-19)
(41.1304 1.17535 -4.58847e-21)
(41.1936 1.41084 -9.54527e-20)
(41.253 1.67281 2.20629e-19)
(41.2736 1.91893 0)
(41.3101 2.16735 1.35215e-20)
(41.3604 2.43169 6.03344e-20)
(41.3816 2.73293 -1.10155e-19)
(41.4091 3.04189 2.11653e-20)
(41.4449 3.35663 3.04705e-19)
(41.4416 3.70121 -3.11821e-20)
(41.4333 4.06263 3.37402e-19)
(41.4003 4.44146 -4.6795e-20)
(41.363 4.83759 6.2847e-20)
(41.3069 5.25428 1.42451e-19)
(41.2422 5.68755 2.1502e-19)
(41.1621 6.14655 -3.97571e-21)
(41.06 6.62599 1.28096e-19)
(40.9417 7.12182 5.25571e-19)
(40.8783 7.73553 0)
(40.723 8.31482 -5.10214e-19)
(40.5276 8.86356 1.21011e-19)
(40.414 9.46604 9.49521e-22)
(40.3249 10.0981 -8.42658e-20)
(40.2006 10.7031 1.6675e-19)
(40.0888 11.3547 -2.29434e-19)
(40.0077 12.0511 4.87801e-19)
(39.9357 12.764 0)
(39.8595 13.498 0)
(39.8226 14.2516 0)
(39.8309 15.053 0)
(39.8685 15.8676 3.03903e-19)
(39.9712 16.7027 -5.50727e-19)
(40.118 17.5646 0)
(40.3112 18.4428 4.21095e-20)
(40.5783 19.3407 -2.22152e-19)
(40.8947 20.25 -2.07643e-18)
(41.2769 21.1512 1.13763e-18)
(41.7616 22.0724 0)
(42.3841 23.0159 1.33284e-18)
(43.0753 24.0329 -4.86535e-18)
(43.6617 25.0547 3.46442e-18)
(43.5079 25.4241 2.72335e-18)
(39.2867 23.5339 1.02385e-17)
(22.0923 13.315 -7.66467e-18)
(39.6331 0.075678 -2.48552e-19)
(41.022 0.0411639 -2.81937e-19)
(41.0541 0.40464 2.02662e-21)
(41.1523 0.515693 -9.59157e-20)
(41.225 0.758825 9.76246e-21)
(41.2999 1.0005 -1.37044e-21)
(41.348 1.20918 -1.0779e-20)
(41.4283 1.47493 9.58351e-20)
(41.4967 1.73666 -3.27862e-20)
(41.5911 2.03661 -1.29193e-21)
(41.6359 2.3526 2.47345e-20)
(41.667 2.68241 -1.02421e-19)
(41.703 3.00174 9.16352e-20)
(41.7151 3.35098 0)
(41.7091 3.72294 0)
(41.7106 4.09149 6.21161e-21)
(41.6918 4.4827 1.05865e-19)
(41.6612 4.88675 0)
(41.6201 5.30953 1.4069e-20)
(41.5656 5.75221 -2.29869e-19)
(41.505 6.20935 -2.40993e-19)
(41.4424 6.68873 1.72984e-20)
(41.3791 7.18299 0)
(41.2967 7.67494 -2.31006e-19)
(41.1594 8.1161 -4.64382e-20)
(41.1175 8.63408 5.18035e-20)
(41.0806 9.22023 0)
(40.9553 9.79766 0)
(40.836 10.3922 -2.43598e-19)
(40.7601 11.0584 5.14068e-20)
(40.6911 11.7243 2.7695e-19)
(40.6266 12.3913 -4.93067e-20)
(40.5904 13.0812 1.94888e-20)
(40.5937 13.7963 -1.02475e-19)
(40.6078 14.5357 4.2058e-19)
(40.6565 15.2676 2.81655e-19)
(40.7719 16.0344 -2.36038e-19)
(40.9195 16.8211 4.28084e-19)
(41.1251 17.6111 -1.08055e-18)
(41.3943 18.4141 5.49697e-20)
(41.708 19.2168 -2.71815e-19)
(42.1038 20.025 1.07658e-18)
(42.5804 20.8352 1.82157e-18)
(43.129 21.6409 -2.02349e-18)
(43.7248 22.4188 1.32575e-18)
(44.3944 23.3063 0)
(44.7803 23.9954 2.18452e-18)
(44.1221 24.0347 3.44725e-18)
(38.5952 21.4254 -6.99789e-18)
(19.6831 10.6173 -2.14733e-18)
(39.7037 0.097244 3.41595e-20)
(41.2445 0.0558909 8.40423e-20)
(41.3081 0.488962 1.60349e-22)
(41.3806 0.605416 6.04519e-20)
(41.4399 0.904239 6.8547e-20)
(41.504 1.12645 -1.05908e-19)
(41.6146 1.41136 1.44689e-19)
(41.6797 1.65168 -7.89693e-20)
(41.7364 1.93917 3.40771e-20)
(41.7565 2.19536 1.13186e-19)
(41.8203 2.47092 -1.59889e-19)
(41.8901 2.76352 3.69335e-20)
(41.922 3.09892 1.62521e-19)
(41.9751 3.41931 -2.25678e-22)
(42.0215 3.76501 9.43726e-20)
(42.0457 4.13536 -1.11416e-19)
(42.0588 4.52434 -2.33988e-21)
(42.0523 4.93056 0)
(42.0423 5.35306 0)
(42.0161 5.79663 0)
(41.9815 6.25491 5.1789e-21)
(41.9338 6.73702 -4.84532e-20)
(41.8665 7.24003 9.70758e-20)
(41.7999 7.77887 4.67884e-21)
(41.7838 8.41208 0)
(41.6731 9.00533 0)
(41.5112 9.55527 -9.61566e-20)
(41.4461 10.1576 2.14297e-20)
(41.4232 10.7869 -9.80167e-20)
(41.3717 11.3782 1.15236e-19)
(41.3275 12.0024 2.5858e-20)
(41.3208 12.6639 2.91453e-19)
(41.336 13.3357 -1.01841e-19)
(41.3486 14.0147 4.76754e-19)
(41.4056 14.6938 -2.49023e-19)
(41.5181 15.412 -8.77982e-20)
(41.6593 16.1267 1.48054e-19)
(41.8683 16.839 4.86887e-19)
(42.1229 17.5596 4.42485e-19)
(42.4164 18.2739 8.28863e-19)
(42.7848 18.986 -2.50235e-19)
(43.1966 19.6883 1.68745e-18)
(43.66 20.3556 -1.87692e-18)
(44.2063 21.0089 0)
(44.8874 21.6831 0)
(45.6061 22.4753 0)
(45.7914 22.8063 0)
(44.5085 22.5274 0)
(37.3726 19.1847 -4.00101e-18)
(16.3996 7.78875 6.57243e-18)
(39.7889 0.12005 -3.44033e-20)
(41.5023 0.0668877 0)
(41.5553 0.529111 0)
(41.6629 0.633652 -6.23197e-20)
(41.7286 0.939474 -7.8552e-20)
(41.8107 1.17863 1.09668e-19)
(41.8675 1.41647 -1.36593e-19)
(41.9646 1.69797 7.9221e-20)
(42.0665 1.99817 -1.79561e-19)
(42.1629 2.3154 -1.19575e-19)
(42.224 2.65783 1.26228e-19)
(42.267 3.0024 -2.64266e-19)
(42.3459 3.34262 -3.21578e-19)
(42.3717 3.73962 0)
(42.401 4.13506 -1.01557e-19)
(42.4287 4.5347 1.3313e-19)
(42.4367 4.95686 4.68971e-23)
(42.4369 5.39039 2.97379e-19)
(42.4263 5.84255 -3.64997e-19)
(42.405 6.31343 0)
(42.3772 6.79669 0)
(42.3482 7.29725 -2.42764e-19)
(42.3174 7.80714 1.74554e-19)
(42.2579 8.29762 3.17673e-19)
(42.156 8.74982 6.31386e-20)
(42.1509 9.26698 -2.85971e-19)
(42.1743 9.85553 3.52482e-19)
(42.11 10.4275 -4.19334e-19)
(42.0417 11.0015 1.9646e-19)
(42.0169 11.6426 -1.69352e-19)
(42.0138 12.2819 1.00862e-19)
(42.0211 12.9068 -2.45216e-19)
(42.0505 13.5372 2.87522e-19)
(42.127 14.1796 -3.68128e-19)
(42.2231 14.84 0)
(42.3507 15.4723 -4.41108e-19)
(42.5482 16.1207 -4.06769e-19)
(42.772 16.7751 1.45258e-19)
(43.045 17.4128 1.10343e-18)
(43.3827 18.0446 -1.06468e-18)
(43.7511 18.6572 -2.2274e-19)
(44.1884 19.2493 -1.97135e-18)
(44.7041 19.8279 4.67451e-18)
(45.2974 20.3931 3.4338e-19)
(45.9408 20.9725 3.97481e-19)
(46.3897 21.4246 -1.91038e-18)
(46.2341 21.5423 0)
(43.9035 20.744 3.55966e-18)
(34.6682 16.4907 -1.9018e-18)
(11.9984 4.80782 0)
(39.8969 0.156775 -7.99175e-22)
(41.7846 0.0761828 -1.59662e-22)
(41.8574 0.604659 2.00819e-19)
(41.9427 0.691323 0)
(41.992 1.04843 3.8076e-21)
(42.0903 1.2861 1.6829e-19)
(42.1906 1.57973 0)
(42.2804 1.85732 -2.36013e-19)
(42.3198 2.13641 1.94469e-19)
(42.3866 2.43767 -1.60156e-20)
(42.4692 2.73027 -3.67461e-19)
(42.5746 3.05699 4.38317e-20)
(42.6128 3.40569 1.8348e-19)
(42.6983 3.73757 0)
(42.7657 4.11231 0)
(42.8211 4.50701 0)
(42.8639 4.92024 3.7814e-19)
(42.8916 5.35218 -2.99826e-19)
(42.9135 5.79995 6.66277e-19)
(42.9221 6.26745 -6.29444e-20)
(42.9223 6.7487 1.41967e-19)
(42.9103 7.25065 1.64308e-19)
(42.8781 7.77098 -7.48158e-19)
(42.8582 8.33215 -5.90227e-19)
(42.894 8.97828 0)
(42.8328 9.5819 2.91314e-19)
(42.6968 10.1236 -7.66471e-19)
(42.6644 10.7084 4.14595e-19)
(42.696 11.3206 -2.44515e-19)
(42.7053 11.8819 1.41983e-19)
(42.7104 12.4542 -1.9086e-19)
(42.7542 13.0581 7.42242e-19)
(42.8298 13.6668 -7.57009e-19)
(42.8991 14.2705 1.12732e-18)
(43.0095 14.8501 4.63538e-19)
(43.1816 15.4617 -1.09991e-18)
(43.372 16.0587 1.40634e-18)
(43.6247 16.6311 -9.17813e-19)
(43.9216 17.1965 3.38227e-20)
(44.2397 17.739 0)
(44.6275 18.2617 1.58079e-18)
(45.0546 18.7641 1.10693e-18)
(45.5196 19.2179 1.33894e-19)
(46.0423 19.6472 -3.16256e-18)
(46.7145 20.1427 -1.13321e-19)
(46.9279 20.3009 -2.2461e-18)
(46.3902 20.1494 0)
(42.7627 18.6974 3.6573e-18)
(31.2854 13.5394 -6.15573e-18)
(7.01351 1.82027 0)
(40.028 0.164814 0)
(42.0864 0.0998366 0)
(42.1443 0.619004 -5.65002e-20)
(42.2458 0.699895 9.28448e-21)
(42.3245 1.05334 -2.1011e-19)
(42.4136 1.29045 -1.72874e-19)
(42.5066 1.55944 0)
(42.6044 1.85828 2.36555e-19)
(42.7591 2.17913 -3.76478e-19)
(42.8572 2.5043 0)
(42.9325 2.86447 6.21381e-19)
(43.0195 3.23238 -7.97049e-20)
(43.1348 3.60449 3.67817e-20)
(43.1998 4.03396 -4.0995e-20)
(43.2662 4.45191 0)
(43.327 4.87894 0)
(43.3699 5.32822 -1.57589e-19)
(43.4053 5.78969 -3.05346e-19)
(43.4282 6.26913 1.15449e-19)
(43.4424 6.76384 -4.80208e-20)
(43.4482 7.27056 1.08637e-19)
(43.4512 7.78942 -6.145e-20)
(43.4501 8.31222 4.72209e-19)
(43.4176 8.80622 1.881e-19)
(43.3396 9.25793 -3.55951e-19)
(43.3509 9.75838 -5.20484e-19)
(43.4245 10.3361 2.96753e-19)
(43.4191 10.896 5.01549e-19)
(43.3866 11.4333 0)
(43.3873 12.0291 0)
(43.4242 12.6279 0)
(43.4751 13.196 -5.33879e-19)
(43.5353 13.751 -3.90918e-19)
(43.644 14.3024 -3.69024e-19)
(43.7808 14.873 6.09627e-19)
(43.9372 15.3983 7.39213e-19)
(44.1614 15.9177 -3.063e-19)
(44.4034 16.4347 1.0289e-18)
(44.6754 16.9215 -6.01364e-19)
(45.0122 17.3883 -8.05826e-19)
(45.3658 17.8256 -9.88746e-19)
(45.7679 18.2216 1.10243e-18)
(46.2411 18.5974 0)
(46.8756 19.0344 1.69757e-18)
(47.2226 19.2368 -9.40839e-19)
(47.1429 19.2037 1.23925e-18)
(45.6946 18.6019 0)
(40.1955 16.2437 -1.73771e-18)
(26.203 9.94694 1.00052e-18)
(4.16103 0.28782 0)
(40.2028 0.213587 -1.45473e-19)
(42.4193 0.111425 0)
(42.4878 0.657711 -3.45328e-19)
(42.5589 0.739624 2.32036e-19)
(42.625 1.12994 2.05079e-19)
(42.7389 1.37252 -8.77676e-21)
(42.8613 1.67142 9.76785e-21)
(42.9634 1.96031 0)
(43.0141 2.2572 3.63274e-19)
(43.1231 2.56694 -2.66407e-19)
(43.2613 2.88298 -2.53463e-19)
(43.3688 3.21802 3.14445e-19)
(43.4522 3.58364 -2.18787e-19)
(43.5644 3.93903 -5.59554e-20)
(43.6664 4.33415 3.17516e-20)
(43.7585 4.75121 0)
(43.8372 5.18675 -3.41483e-19)
(43.9025 5.64297 3.90775e-19)
(43.9597 6.11425 6.683e-20)
(44.0037 6.60382 -1.7774e-21)
(44.0382 7.10677 7.36032e-20)
(44.0607 7.62596 0)
(44.0619 8.16041 9.97509e-20)
(44.0761 8.7324 4.04583e-19)
(44.1522 9.381 4.5188e-19)
(44.138 9.99281 5.23276e-19)
(44.0179 10.5242 0)
(43.9894 11.0767 -3.55733e-19)
(44.0471 11.6635 -7.76798e-19)
(44.0929 12.1907 4.16618e-19)
(44.1216 12.7002 -8.90777e-19)
(44.18 13.2333 -4.30005e-19)
(44.277 13.7684 7.50106e-19)
(44.3647 14.2944 -2.70022e-19)
(44.4825 14.7706 -6.14875e-19)
(44.6668 15.2711 -3.06916e-19)
(44.854 15.7559 -4.38495e-19)
(45.0894 16.1976 0)
(45.3724 16.621 -7.34561e-19)
(45.6545 17.0121 1.62851e-18)
(45.9941 17.3685 1.00208e-18)
(46.3748 17.7041 -1.18866e-18)
(46.8184 18.022 1.48761e-18)
(47.249 18.271 -7.55698e-19)
(47.329 18.2949 1.98941e-18)
(46.8474 18.0329 -1.1721e-20)
(44.2251 16.8825 0)
(36.5129 13.5444 3.51427e-18)
(20.1409 6.315 -2.95538e-18)
(1.86359 -0.260462 -1.04932e-18)
(40.3642 0.199642 1.45684e-19)
(42.7427 0.0961813 -2.19096e-19)
(42.8118 0.634972 1.96088e-19)
(42.8978 0.705242 -2.28138e-19)
(42.9735 1.07067 -1.65387e-19)
(43.0876 1.30391 -1.08497e-20)
(43.1937 1.57663 6.16277e-21)
(43.3465 1.88738 0)
(43.5231 2.21433 -2.82517e-19)
(43.6468 2.55154 4.37158e-19)
(43.7539 2.93775 0)
(43.8993 3.31366 -2.70721e-20)
(44.0551 3.70508 8.29653e-21)
(44.1741 4.16077 2.81726e-19)
(44.2837 4.59915 -4.08782e-19)
(44.3832 5.05613 -1.62327e-21)
(44.4674 5.53105 5.4039e-20)
(44.5412 6.0199 0)
(44.5994 6.52673 -1.93071e-19)
(44.6484 7.04496 4.16287e-19)
(44.6838 7.57518 -4.74234e-20)
(44.7121 8.11255 0)
(44.7311 8.64963 0)
(44.7232 9.15655 -1.94073e-19)
(44.6578 9.60985 8.47564e-20)
(44.6531 10.0821 -6.18224e-19)
(44.7454 10.6375 2.2163e-19)
(44.7867 11.1885 -1.25868e-19)
(44.772 11.6862 3.8405e-19)
(44.7663 12.2256 1.69127e-19)
(44.8039 12.7786 5.03609e-19)
(44.8637 13.2918 -5.48291e-19)
(44.9165 13.7738 3.52944e-19)
(45.0135 14.231 -3.48088e-19)
(45.1512 14.7163 -3.98733e-19)
(45.2898 15.1497 -4.17704e-19)
(45.4901 15.5514 0)
(45.7066 15.9469 1.00641e-18)
(45.9238 16.3072 -3.73654e-19)
(46.2052 16.6371 -8.86355e-19)
(46.4988 16.9393 1.05273e-18)
(46.8302 17.2031 -2.63394e-20)
(47.2852 17.4855 -7.35916e-19)
(47.4478 17.5614 -1.7918e-20)
(47.3195 17.4673 -1.0644e-18)
(45.9309 16.8653 -2.53113e-18)
(41.4143 15.0797 1.41866e-18)
(30.6429 10.778 0)
(10.7318 2.75636 -1.86259e-18)
(-0.0691993 -0.165652 3.5885e-18)
(40.5465 0.222464 4.19919e-22)
(43.0442 0.0985782 2.20306e-19)
(43.156 0.639667 -7.26715e-20)
(43.2404 0.695742 -2.43347e-21)
(43.3122 1.1043 1.65675e-19)
(43.4411 1.31053 0)
(43.5741 1.61865 0)
(43.7 1.90529 -9.05413e-21)
(43.804 2.20885 4.89536e-19)
(43.9631 2.52718 -1.74484e-19)
(44.1262 2.83308 1.42231e-20)
(44.2761 3.19932 -3.23912e-20)
(44.4113 3.58326 1.46834e-19)
(44.5502 3.94576 -1.47527e-19)
(44.6925 4.36286 5.88997e-19)
(44.8278 4.80205 -1.28409e-19)
(44.9481 5.26158 1.48518e-19)
(45.0535 5.74435 3.96726e-20)
(45.1479 6.24121 -4.15688e-19)
(45.2275 6.75703 -2.71099e-19)
(45.293 7.28452 1.57563e-21)
(45.3452 7.82373 -6.72603e-20)
(45.3731 8.37492 0)
(45.4037 8.95338 -2.79406e-19)
(45.4987 9.60414 1.21557e-21)
(45.5242 10.2361 5.39638e-20)
(45.4109 10.7667 6.63838e-20)
(45.35 11.2805 1.67065e-19)
(45.3877 11.839 0)
(45.4343 12.3425 1.03869e-19)
(45.4603 12.7973 5.74108e-19)
(45.4949 13.2586 5.10074e-19)
(45.5721 13.7194 -2.59489e-19)
(45.6452 14.1817 5.39245e-19)
(45.7301 14.5706 -4.39166e-19)
(45.886 14.9681 -2.64391e-19)
(46.0327 15.3604 0)
(46.2021 15.7005 -6.75128e-19)
(46.4315 16.0121 -4.22453e-19)
(46.6436 16.293 4.71867e-19)
(46.8967 16.5352 -5.52834e-19)
(47.2793 16.8225 6.17331e-19)
(47.4372 16.9303 0)
(47.3907 16.9133 4.54139e-19)
(46.5956 16.5891 0)
(43.8618 15.5437 6.20034e-19)
(36.8558 12.8655 -1.39671e-18)
(22.641 7.39253 7.82218e-19)
(4.84964 1.02503 0)
(-1.02466 -0.0530231 2.35281e-19)
(40.7371 0.153457 6.26129e-23)
(43.3537 0.0731041 7.21968e-23)
(43.4462 0.582652 7.47195e-20)
(43.5454 0.600294 3.70468e-22)
(43.6274 0.964984 3.17059e-21)
(43.7693 1.15648 4.93448e-22)
(43.931 1.44675 -5.49259e-22)
(44.1207 1.73631 1.33127e-21)
(44.3278 2.06193 -1.80744e-19)
(44.4874 2.40519 -3.79459e-21)
(44.6641 2.80242 -2.10566e-21)
(44.8412 3.17235 4.79846e-21)
(45.0586 3.57631 1.61836e-19)
(45.2426 4.05613 -1.9112e-19)
(45.4077 4.51669 -2.33788e-19)
(45.5581 5.00306 1.28327e-19)
(45.6913 5.50548 -1.43649e-19)
(45.808 6.02528 -6.33561e-21)
(45.9058 6.56369 -7.30651e-21)
(45.9881 7.11443 0)
(46.0505 7.67499 -9.65096e-21)
(46.0966 8.24077 -5.1567e-21)
(46.1243 8.80336 5.76728e-21)
(46.1307 9.33845 0)
(46.0669 9.81053 0)
(46.0147 10.2624 2.46709e-19)
(46.0824 10.796 0)
(46.1459 11.351 -1.67284e-19)
(46.1325 11.8245 0)
(46.0889 12.3061 7.81677e-21)
(46.0814 12.8126 -2.6989e-19)
(46.1122 13.2835 1.90843e-20)
(46.125 13.7127 -3.59837e-19)
(46.1712 14.0846 3.19866e-20)
(46.2786 14.4937 1.97086e-19)
(46.3663 14.8633 2.98737e-19)
(46.5015 15.1742 -1.0283e-20)
(46.67 15.4736 0)
(46.8062 15.7453 -6.88992e-21)
(47.0004 15.9819 7.97939e-21)
(47.2889 16.2581 0)
(47.4405 16.4035 -9.65741e-21)
(47.452 16.4303 -4.69148e-20)
(47.0335 16.3117 -3.99424e-19)
(45.3287 15.7016 -8.12603e-21)
(40.5271 13.9521 0)
(29.98 10.0934 0)
(11.914 3.4124 1.07267e-19)
(1.1709 0.33229 -1.06224e-19)
(-1.5557 -0.0850802 2.39133e-19)
(40.8413 0.140145 1.55932e-19)
(43.6635 0.0216057 1.73838e-19)
(43.7479 0.540637 9.67772e-20)
(43.8623 0.547725 1.14513e-19)
(43.9657 0.925492 1.21828e-19)
(44.1193 1.10301 -1.45498e-19)
(44.2617 1.38129 0)
(44.4269 1.67149 0)
(44.6035 1.94369 1.1818e-19)
(44.8021 2.24551 3.79413e-21)
(45.0201 2.56377 -1.51911e-19)
(45.2401 2.94816 -1.08379e-20)
(45.4126 3.32866 -2.07753e-19)
(45.5972 3.70608 2.43242e-19)
(45.7874 4.14085 3.08848e-19)
(45.977 4.604 0)
(46.1489 5.09256 0)
(46.302 5.60761 6.33398e-21)
(46.4381 6.13918 7.30499e-21)
(46.556 6.69071 -3.11905e-19)
(46.6533 7.25459 9.64868e-21)
(46.73 7.82797 0)
(46.7779 8.40857 0)
(46.8091 9.00273 -6.26447e-20)
(46.8962 9.66481 -3.03959e-19)
(46.9466 10.3366 8.89546e-20)
(46.8392 10.8981 0)
(46.7201 11.39 -2.19398e-19)
(46.6843 11.9245 0)
(46.6876 12.4257 -7.81396e-21)
(46.683 12.8498 0)
(46.6591 13.2497 0)
(46.6772 13.6359 9.87446e-20)
(46.7129 14.0519 1.14401e-19)
(46.7354 14.3836 0)
(46.8304 14.6901 0)
(46.9249 15.0076 1.02771e-20)
(47.0022 15.2826 0)
(47.1578 15.52 6.88527e-21)
(47.345 15.7699 -2.63239e-19)
(47.5028 15.972 2.77933e-19)
(47.5348 16.0249 1.97136e-20)
(47.2864 16.0063 1.12468e-20)
(46.1102 15.6474 -4.46814e-19)
(42.5918 14.4124 -2.56063e-19)
(34.5749 11.5779 1.46236e-18)
(20.0437 6.35157 -6.54333e-19)
(4.55115 1.28302 -7.50146e-19)
(-1.09689 0.19084 6.19498e-19)
(-1.68947 -0.0256252 0)
(40.9572 0.101353 -1.54277e-19)
(43.9046 -0.0498744 2.05569e-19)
(43.9982 0.392428 -9.49984e-20)
(44.0911 0.383659 1.35233e-19)
(44.2162 0.709233 -1.29246e-19)
(44.4026 0.863838 1.49759e-19)
(44.6217 1.11416 1.17463e-20)
(44.8281 1.37165 -1.30783e-20)
(45.0785 1.6951 -1.02073e-19)
(45.3275 2.03322 -1.78591e-20)
(45.5366 2.40048 1.61518e-19)
(45.7712 2.75756 4.23735e-19)
(46.0721 3.18849 -2.75877e-19)
(46.3117 3.6686 -2.22666e-19)
(46.5459 4.14874 -1.01902e-18)
(46.7683 4.66247 4.75713e-20)
(46.9754 5.20029 -5.30651e-20)
(47.1582 5.75923 5.33648e-19)
(47.3039 6.33854 7.3509e-20)
(47.426 6.93601 2.29416e-19)
(47.5189 7.54613 0)
(47.5831 8.16121 0)
(47.6147 8.77269 0)
(47.6221 9.36384 0)
(47.5539 9.89053 3.02325e-19)
(47.4338 10.3496 -7.75808e-19)
(47.4305 10.8714 0)
(47.4759 11.4507 7.104e-19)
(47.449 11.9375 0)
(47.3478 12.379 0)
(47.2537 12.8419 -6.93805e-19)
(47.2134 13.2818 3.75725e-19)
(47.1614 13.6884 -8.4543e-19)
(47.1227 13.9921 2.44599e-19)
(47.1738 14.3218 0)
(47.1992 14.6482 0)
(47.2404 14.9009 3.57545e-19)
(47.3592 15.1258 -1.22123e-18)
(47.4583 15.3593 0)
(47.5997 15.5984 -7.50326e-19)
(47.6414 15.6766 1.13544e-18)
(47.4503 15.6971 -1.37639e-18)
(46.6064 15.495 7.82204e-19)
(43.9785 14.6239 -9.08627e-19)
(37.7779 12.5067 2.29405e-18)
(25.8523 8.35775 -2.00834e-18)
(8.51652 2.53576 1.29326e-18)
(0.499389 0.563599 -2.88371e-18)
(-2.0691 0.132858 3.40055e-18)
(-1.56935 0.0666513 -2.19248e-18)
(40.9473 0.041655 -3.61365e-19)
(44.0734 -0.0968044 2.73715e-20)
(44.2307 0.281234 0)
(44.3438 0.259212 -2.47829e-19)
(44.475 0.594945 -6.31634e-19)
(44.6583 0.704845 2.10942e-20)
(44.8429 0.97094 0)
(45.0888 1.21194 0)
(45.3099 1.45056 -3.53203e-20)
(45.5602 1.71625 3.93457e-20)
(45.8657 2.0416 -7.91746e-19)
(46.1471 2.42403 5.08986e-19)
(46.3827 2.78479 4.95974e-19)
(46.6471 3.17839 -6.43885e-19)
(46.912 3.6302 6.78423e-19)
(47.1606 4.11988 1.07041e-19)
(47.385 4.63669 -1.14903e-18)
(47.5932 5.18977 -1.72906e-18)
(47.7851 5.7683 0)
(47.9512 6.37173 7.9877e-19)
(48.0892 6.98977 9.18434e-19)
(48.1955 7.62136 0)
(48.2632 8.25855 -1.19937e-18)
(48.2966 8.89935 0)
(48.3505 9.58873 0)
(48.4117 10.3253 7.73404e-19)
(48.31 10.9721 5.13111e-19)
(48.1282 11.4876 1.11669e-18)
(47.9745 12.0125 0)
(47.8792 12.5344 0)
(47.8084 12.9659 3.30013e-19)
(47.6982 13.3333 4.03618e-19)
(47.6167 13.64 1.38739e-18)
(47.5964 14.0065 2.91786e-21)
(47.5383 14.3099 5.20852e-21)
(47.5389 14.5364 -1.29191e-18)
(47.5943 14.7725 -1.12279e-20)
(47.6107 15.0106 1.6217e-18)
(47.7353 15.2684 8.92271e-19)
(47.7764 15.3659 4.98966e-19)
(47.6129 15.4088 1.2188e-18)
(46.9611 15.2999 2.50426e-20)
(44.9698 14.6995 -1.56783e-18)
(39.9537 13.0518 -8.95585e-19)
(29.7409 9.57297 -2.52575e-18)
(13.1591 4.05502 2.82746e-18)
(2.47438 1.06755 -1.26039e-18)
(-1.48985 0.38773 0)
(-2.35707 0.202179 0)
(-1.36848 0.136134 4.31058e-19)
(40.8684 -0.0135079 1.11048e-18)
(44.1993 -0.17684 4.51306e-19)
(44.3686 0.125821 -4.86571e-19)
(44.5019 0.0501314 1.74549e-20)
(44.6412 0.313051 1.25848e-18)
(44.8713 0.393543 -2.24971e-20)
(45.1247 0.598543 0)
(45.4008 0.833319 -1.03641e-18)
(45.7118 1.10492 -3.81817e-20)
(46.0115 1.41026 -2.46135e-21)
(46.2865 1.7303 1.69292e-18)
(46.6146 2.07098 -8.67804e-19)
(46.995 2.51038 3.91182e-21)
(47.3132 2.98169 5.60412e-19)
(47.6341 3.471 0)
(47.9348 4.00441 0)
(48.2263 4.57236 8.88683e-19)
(48.5037 5.17568 1.34665e-18)
(48.7456 5.80966 0)
(48.9262 6.46932 -7.96221e-19)
(49.0662 7.15046 -9.15325e-19)
(49.1639 7.84473 -2.80056e-19)
(49.212 8.54067 1.72056e-19)
(49.2182 9.22611 1.15699e-18)
(49.1509 9.86014 4.03761e-19)
(48.9576 10.3867 4.57046e-19)
(48.8533 10.9187 -1.48092e-18)
(48.8272 11.5433 -1.08484e-18)
(48.76 12.0997 1.33398e-18)
(48.5958 12.5488 -1.47571e-18)
(48.3835 12.9813 0)
(48.2223 13.3872 0)
(48.0824 13.7989 2.83412e-20)
(47.9214 14.0656 -1.06946e-18)
(47.8711 14.2922 1.21642e-18)
(47.8427 14.5529 2.02582e-18)
(47.7917 14.7701 -7.42059e-19)
(47.9043 14.9936 -1.6074e-18)
(47.9305 15.0956 -1.80114e-18)
(47.7735 15.1339 -1.07369e-18)
(47.2412 15.0935 -1.88412e-20)
(45.6686 14.684 1.37718e-18)
(41.4938 13.368 0)
(32.4482 10.3455 8.8711e-19)
(17.0821 5.31806 9.94872e-19)
(4.54727 1.68219 1.10704e-18)
(-0.67634 0.692122 3.71584e-18)
(-2.32476 0.41322 -1.38341e-18)
(-2.33855 0.320977 0)
(-1.16239 0.175517 0)
(40.72 -0.0333553 1.17297e-20)
(44.2663 -0.244308 -8.5633e-19)
(44.4657 0.0159848 5.01629e-19)
(44.6064 -0.0832759 -1.1527e-18)
(44.7612 0.161094 -6.86071e-19)
(44.9972 0.196282 -1.22859e-21)
(45.2534 0.397534 2.75456e-20)
(45.5214 0.538717 9.6579e-19)
(45.808 0.746744 7.62769e-20)
(46.1597 0.977728 9.58358e-20)
(46.5392 1.27173 -8.4375e-19)
(46.8857 1.61908 -1.26448e-19)
(47.2132 1.94953 -1.27009e-18)
(47.5836 2.34432 -1.50442e-18)
(47.9415 2.804 2.20444e-19)
(48.2861 3.3063 -2.4589e-19)
(48.6055 3.85552 0)
(48.8877 4.45204 -1.44124e-18)
(49.1321 5.08436 0)
(49.3734 5.75245 0)
(49.574 6.44643 0)
(49.7279 7.16508 -6.20227e-19)
(49.8335 7.89241 2.0212e-18)
(49.8923 8.62705 -1.50863e-18)
(49.9099 9.37931 0)
(49.9643 10.2039 -5.04827e-19)
(49.885 11.0011 -1.81354e-18)
(49.6585 11.6231 -2.64024e-18)
(49.3708 12.175 -2.01429e-18)
(49.1148 12.7392 1.39102e-18)
(48.9237 13.223 -1.68228e-18)
(48.6984 13.6214 9.31945e-19)
(48.4616 13.8602 2.09501e-18)
(48.3385 14.1338 0)
(48.1899 14.4067 1.30666e-18)
(48.0531 14.5665 -2.70648e-18)
(48.1063 14.7362 -1.49596e-20)
(48.0633 14.8624 1.62786e-18)
(47.9147 14.8752 9.32585e-19)
(47.4573 14.8742 0)
(46.1556 14.5834 1.22079e-18)
(42.6689 13.5287 -1.4021e-18)
(34.4863 10.8664 3.14659e-18)
(20.0276 6.25892 0)
(6.51611 2.34637 -3.91992e-18)
(0.424136 1.09203 1.08842e-18)
(-1.91423 0.804159 -1.21619e-18)
(-2.61525 0.729764 -1.35519e-18)
(-2.24975 0.551644 3.02805e-18)
(-1.01151 0.235016 1.13364e-21)
(40.4849 -0.115426 -7.70882e-19)
(44.2639 -0.370151 8.75306e-19)
(44.4776 -0.189035 -1.00203e-18)
(44.6339 -0.347972 2.31426e-18)
(44.8223 -0.165229 -1.39526e-18)
(45.0916 -0.188966 9.90954e-20)
(45.3699 -0.00703279 -9.9373e-19)
(45.7395 0.144845 0)
(46.1186 0.325969 -1.32154e-18)
(46.4465 0.575801 1.67432e-18)
(46.8205 0.833356 7.57218e-21)
(47.2484 1.1396 -1.32915e-19)
(47.7156 1.55209 1.26583e-18)
(48.1385 1.99086 -9.0058e-20)
(48.5652 2.47322 1.65156e-18)
(48.974 3.01237 2.63515e-19)
(49.3783 3.59985 0)
(49.763 4.24251 1.43477e-18)
(50.1146 4.93125 3.63389e-18)
(50.4243 5.65976 0)
(50.6527 6.43205 0)
(50.8302 7.22858 0)
(50.9259 8.04541 -2.45145e-18)