/*--------------------------------*- C++ -*----------------------------------*\
| =========                 |                                                 |
| \\      /  F ield         | OpenFOAM: The Open Source CFD Toolbox           |
|  \\    /   O peration     | Version:  v1912                                 |
|   \\  /    A nd           | Website:  www.openfoam.com                      |
|    \\/     M anipulation  |                                                 |
\*---------------------------------------------------------------------------*/
FoamFile
{
    version     2.0;
    format      ascii;
    class       surfaceScalarField;
    location    "0.09";
    object      phi;
}
// * * * * * * * * * * * * * * * * * * * * * * * * * * * * * * * * * * * * * //

dimensions      [0 3 -1 0 0 0 0];
oriented        oriented;


internalField   nonuniform List<scalar> 
13060
(
0.0057381
0.988449
-0.994187
0.007421
0.945913
-0.947596
0.00842701
0.900204
-0.90121
0.00943474
0.856696
-0.857704
0.0101318
0.816122
-0.816819
0.0107102
0.778016
-0.778595
0.0110948
0.741454
-0.741839
0.0114204
0.706541
-0.706867
0.0117124
0.673162
-0.673454
0.0120399
0.641238
-0.641566
0.0123573
0.61079
-0.611107
0.0126122
0.581668
-0.581923
0.0128444
0.55391
-0.554143
0.0130294
0.527325
-0.52751
0.0131505
0.502021
-0.502142
0.0130871
0.477849
-0.477785
0.0128993
0.454715
-0.454527
0.012654
0.432489
-0.432243
0.012483
0.411279
-0.411108
0.0122713
0.391019
-0.390807
0.0120894
0.371662
-0.37148
0.0119429
0.35324
-0.353094
0.0117668
0.335752
-0.335576
0.0115538
0.319067
-0.318854
0.0113137
0.303157
-0.302916
0.0110566
0.288042
-0.287785
0.010881
0.273512
-0.273337
0.0107082
0.259702
-0.259529
0.0104336
0.246748
-0.246474
0.00995136
0.234581
-0.234099
0.00933719
0.222964
-0.22235
0.00874651
0.211865
-0.211275
0.00815186
0.201431
-0.200836
0.00749119
0.191614
-0.190953
0.00678063
0.182282
-0.181572
0.00605578
0.173469
-0.172744
0.00531086
0.165226
-0.164481
0.00452119
0.157477
-0.156687
0.00372057
0.150177
-0.149376
0.00291603
0.143377
-0.142572
0.00210465
0.136967
-0.136156
0.00132299
0.130934
-0.130152
0.00058042
0.125286
-0.124543
-9.90181e-05
0.120011
-0.119332
-0.000860003
0.115061
-0.1143
-0.0014849
0.110491
-0.109866
-0.00217489
0.105826
-0.105136
-0.00260977
0.102184
-0.10175
-0.0021378
0.0935248
-0.0939968
0.0641149
-0.0662527
0.00585348
0.982596
0.00707779
0.944689
0.00763114
0.899651
0.0075436
0.856784
0.00750447
0.816161
0.00745509
0.778066
0.00755284
0.741356
0.00755217
0.706542
0.00744586
0.673268
0.00727403
0.64141
0.00710243
0.610962
0.00706504
0.581706
0.00704598
0.553929
0.00697978
0.527392
0.00702388
0.501977
0.00721827
0.477654
0.00754117
0.454392
0.0077451
0.432285
0.00789377
0.41113
0.00789781
0.391014
0.00775396
0.371806
0.00751364
0.353481
0.00726065
0.336005
0.00697838
0.319349
0.00665288
0.303482
0.00625521
0.288439
0.00569299
0.274074
0.00498952
0.260406
0.00433059
0.247407
0.00387212
0.23504
0.00350002
0.223336
0.00302054
0.212345
0.00246672
0.201984
0.00192854
0.192152
0.00138735
0.182824
0.000826848
0.174029
0.000254231
0.165798
-0.000320663
0.158052
-0.000922165
0.150778
-0.0015091
0.143964
-0.00206469
0.137523
-0.0025987
0.131468
-0.00309561
0.125783
-0.00353543
0.120451
-0.00387267
0.115399
-0.00412948
0.110747
-0.00434128
0.106037
-0.00397828
0.101821
-0.00281149
0.092358
0.0613034
0.0052735
0.977322
0.00606967
0.943893
0.00613911
0.899581
0.00568487
0.857238
0.00525653
0.816589
0.00488501
0.778437
0.00457138
0.74167
0.00431288
0.7068
0.00427247
0.673309
0.00414742
0.641535
0.00411378
0.610995
0.00398063
0.581839
0.00380067
0.554109
0.00360041
0.527592
0.00327241
0.502305
0.00274355
0.478183
0.00214534
0.45499
0.00165365
0.432776
0.00124936
0.411534
0.000884759
0.391379
0.000600136
0.372091
0.000334739
0.353746
3.28932e-05
0.336307
-0.000275576
0.319658
-0.000592185
0.303799
-0.000884786
0.288732
-0.00105086
0.274241
-0.00113844
0.260493
-0.00138734
0.247656
-0.00186884
0.235521
-0.00239329
0.223861
-0.00279383
0.212745
-0.00318429
0.202375
-0.00363569
0.192604
-0.00409837
0.183286
-0.00453758
0.174468
-0.00494969
0.166211
-0.00535571
0.158458
-0.00572363
0.151146
-0.00605301
0.144293
-0.00634369
0.137813
-0.00655489
0.131679
-0.00667971
0.125908
-0.00670998
0.120481
-0.00661968
0.115308
-0.00640314
0.110531
-0.0061428
0.105777
-0.00522689
0.100906
-0.00344546
0.0905766
0.057858
0.00493282
0.97239
0.00453148
0.944294
0.00398886
0.900124
0.00315801
0.858069
0.00237905
0.817368
0.00183318
0.778983
0.00125884
0.742244
0.000575848
0.707483
-7.6751e-05
0.673961
-0.000652031
0.64211
-0.00116892
0.611512
-0.00160942
0.582279
-0.00204161
0.554542
-0.0024501
0.528
-0.00268698
0.502542
-0.00270572
0.478202
-0.00272783
0.455013
-0.00283871
0.432887
-0.00305004
0.411746
-0.0032783
0.391607
-0.00362484
0.372437
-0.00398217
0.354103
-0.0043329
0.336658
-0.00470426
0.320029
-0.00510711
0.304202
-0.00555354
0.289178
-0.00616065
0.274848
-0.00686384
0.261196
-0.0074398
0.248232
-0.00781786
0.235899
-0.00816034
0.224203
-0.00857491
0.21316
-0.00896922
0.202769
-0.00928455
0.192919
-0.0095609
0.183563
-0.00983408
0.174742
-0.0100938
0.16647
-0.0102836
0.158647
-0.0104131
0.151276
-0.0104803
0.144361
-0.0104606
0.137794
-0.0103689
0.131587
-0.0101821
0.125721
-0.00986939
0.120168
-0.00943356
0.114873
-0.00882064
0.109918
-0.00808489
0.105041
-0.00671264
0.0995333
-0.00422277
0.0880867
0.0536352
0.00365426
0.968735
0.00293228
0.945016
0.00170897
0.901347
0.000784382
0.858993
-0.000144491
0.818297
-0.000918869
0.779758
-0.00169559
0.743021
-0.00240369
0.708191
-0.00292151
0.674479
-0.00360804
0.642797
-0.0041608
0.612065
-0.00469816
0.582817
-0.00521909
0.555062
-0.00582664
0.528608
-0.00659751
0.503313
-0.00754473
0.479149
-0.00836982
0.455838
-0.00914866
0.433666
-0.00987546
0.412473
-0.0104773
0.392209
-0.0109261
0.372886
-0.011371
0.354548
-0.0118092
0.337096
-0.0122257
0.320446
-0.0126132
0.304589
-0.0129341
0.289499
-0.0130876
0.275001
-0.013125
0.261234
-0.0132774
0.248385
-0.0136473
0.236269
-0.0140297
0.224585
-0.0142784
0.213409
-0.0144933
0.202984
-0.0147224
0.193148
-0.0149077
0.183748
-0.0150152
0.174849
-0.0150432
0.166498
-0.0150284
0.158633
-0.0149327
0.15118
-0.0147381
0.144166
-0.0144568
0.137512
-0.0140488
0.131179
-0.0135121
0.125184
-0.0128451
0.119501
-0.0120379
0.114065
-0.011032
0.108912
-0.00994135
0.103951
-0.008147
0.0977389
-0.00494945
0.0848892
0.0486858
0.00272018
0.966015
0.00155035
0.946186
-0.000351381
0.903249
-0.00156114
0.860203
-0.0029427
0.819678
-0.00424937
0.781064
-0.00547209
0.744244
-0.00653323
0.709253
-0.00766084
0.675607
-0.00865545
0.643792
-0.00963621
0.613046
-0.01069
0.583871
-0.0114789
0.555851
-0.0120794
0.529208
-0.0125098
0.503743
-0.0127356
0.479375
-0.0130874
0.456189
-0.0134956
0.434074
-0.0138647
0.412842
-0.0143707
0.392715
-0.0149273
0.373442
-0.0154346
0.355056
-0.015924
0.337585
-0.0163993
0.320921
-0.0168736
0.305063
-0.0173675
0.289993
-0.0180024
0.275636
-0.0187161
0.261947
-0.0192279
0.248896
-0.0194806
0.236522
-0.0196788
0.224784
-0.0199234
0.213653
-0.0200916
0.203152
-0.0201387
0.193195
-0.0201067
0.183716
-0.0200231
0.174766
-0.0198824
0.166358
-0.0196308
0.158381
-0.0192891
0.150838
-0.0188433
0.14372
-0.0182648
0.136934
-0.0175812
0.130495
-0.0167728
0.124376
-0.0158177
0.118546
-0.0147542
0.113002
-0.0135918
0.10775
-0.012078
0.102437
-0.00976207
0.095423
-0.0057572
0.0808843
0.0429286
0.00203419
0.963981
6.8882e-06
0.948213
-0.00240066
0.905657
-0.00405193
0.861855
-0.00587708
0.821504
-0.00738722
0.782574
-0.00867595
0.745533
-0.00982881
0.710405
-0.0109106
0.676688
-0.0119275
0.644809
-0.012803
0.613921
-0.0136461
0.584714
-0.0145336
0.556739
-0.0155376
0.530212
-0.0167196
0.504925
-0.0179945
0.48065
-0.0190441
0.457239
-0.0200274
0.435058
-0.021011
0.413825
-0.0217471
0.393451
-0.0223864
0.374082
-0.0230249
0.355694
-0.0236174
0.338178
-0.0241382
0.321442
-0.0245711
0.305496
-0.0248761
0.290298
-0.024963
0.275723
-0.0249132
0.261898
-0.0249671
0.24895
-0.0251736
0.236729
-0.0253407
0.224951
-0.0253594
0.213672
-0.0253247
0.203118
-0.0252616
0.193132
-0.0251202
0.183574
-0.0248651
0.174511
-0.0244843
0.165977
-0.0240227
0.15792
-0.0234491
0.150265
-0.022751
0.143022
-0.0219468
0.13613
-0.0209981
0.129547
-0.0199141
0.123292
-0.0187062
0.117339
-0.0173628
0.111658
-0.015982
0.106369
-0.0140484
0.100503
-0.0112744
0.092649
-0.00647952
0.0760894
0.036449
0.0012709
0.96271
-0.0022637
0.951748
-0.00472669
0.90812
-0.00663651
0.863764
-0.00862173
0.823489
-0.0104167
0.784369
-0.012162
0.747278
-0.0137341
0.711978
-0.0154463
0.678401
-0.0167628
0.646125
-0.0181761
0.615334
-0.0195239
0.586062
-0.0206882
0.557903
-0.0215738
0.531098
-0.0221618
0.505513
-0.0226229
0.481111
-0.0232847
0.457901
-0.0238675
0.43564
-0.0244389
0.414397
-0.0252084
0.394221
-0.0259439
0.374817
-0.0265884
0.356339
-0.0272086
0.338798
-0.0277899
0.322023
-0.0283271
0.306033
-0.0288606
0.290832
-0.0294991
0.276362
-0.0301867
0.262585
-0.0306231
0.249387
-0.0307385
0.236844
-0.0307261
0.224938
-0.0307177
0.213664
-0.0306027
0.203003
-0.0303302
0.19286
-0.0299404
0.183185
-0.0294744
0.174045
-0.0289318
0.165434
-0.0282514
0.157239
-0.0274593
0.149473
-0.0265519
0.142115
-0.0254985
0.135076
-0.0243438
0.128392
-0.0230809
0.122029
-0.0216951
0.115953
-0.0202069
0.11017
-0.0185775
0.10474
-0.0163424
0.0982682
-0.0129782
0.0892847
-0.00723997
0.0703512
0.0292091
0.000340604
0.962369
-0.0033369
0.955425
-0.00612105
0.910904
-0.00888378
0.866527
-0.0110152
0.82562
-0.0128925
0.786247
-0.0148215
0.749207
-0.0165008
0.713657
-0.0180347
0.679935
-0.0193518
0.647442
-0.020684
0.616667
-0.0218316
0.587209
-0.0231621
0.559234
-0.0246133
0.532549
-0.0262124
0.507112
-0.0277867
0.482685
-0.0291478
0.459262
-0.0304473
0.43694
-0.0316647
0.415614
-0.0325923
0.395148
-0.0334396
0.375665
-0.0342205
0.357119
-0.0349036
0.339481
-0.0354952
0.322614
-0.03597
0.306508
-0.0362485
0.29111
-0.0362745
0.276388
-0.0360881
0.262399
-0.0359754
0.249274
-0.0360061
0.236875
-0.0359739
0.224906
-0.0357411
0.213431
-0.0354129
0.202674
-0.0350296
0.192476
-0.0345499
0.182705
-0.0339359
0.173431
-0.0331739
0.164672
-0.0323161
0.156381
-0.0313336
0.14849
-0.0302171
0.140998
-0.0290065
0.133866
-0.0276634
0.127049
-0.0261956
0.120561
-0.0246388
0.114396
-0.0230981
0.108629
-0.0211025
0.102744
-0.0185225
0.0956882
-0.0145126
0.0852748
-0.00793395
0.0637726
0.0212751
-0.000191273
0.962561
-0.00359824
0.958832
-0.00683518
0.914141
-0.0103897
0.870082
-0.0132243
0.828455
-0.0156188
0.788641
-0.0178311
0.751419
-0.0198616
0.715687
-0.0217396
0.681813
-0.0236188
0.649321
-0.0254319
0.61848
-0.0271232
0.5889
-0.0285817
0.560692
-0.0297448
0.533712
-0.0306217
0.507989
-0.0315258
0.483589
-0.0325064
0.460243
-0.0333823
0.437816
-0.0342572
0.416489
-0.0352677
0.396159
-0.0361741
0.376571
-0.03698
0.357925
-0.0377323
0.340233
-0.0384014
0.323284
-0.0389909
0.307098
-0.0395665
0.291686
-0.0402161
0.277037
-0.0408519
0.263035
-0.0411951
0.249617
-0.041141
0.23682
-0.0409009
0.224666
-0.0406515
0.213181
-0.0402767
0.2023
-0.0397068
0.191906
-0.0389901
0.181988
-0.0381855
0.172626
-0.037301
0.163788
-0.0362721
0.155352
-0.0351309
0.147349
-0.0338842
0.139752
-0.0324923
0.132474
-0.0310178
0.125574
-0.029477
0.11902
-0.0278501
0.112769
-0.0261493
0.106929
-0.023809
0.100404
-0.0207447
0.0926239
-0.0157443
0.0802744
-0.0079657
0.055994
0.0133094
-0.000267822
0.962829
-0.00387439
0.962439
-0.00783552
0.918102
-0.011485
0.873731
-0.0145673
0.831537
-0.0173449
0.791419
-0.0194436
0.753518
-0.0214506
0.717694
-0.0233218
0.683684
-0.025157
0.651157
-0.0268862
0.620209
-0.0285188
0.590533
-0.0302722
0.562445
-0.0321979
0.535638
-0.0342109
0.510002
-0.036039
0.485417
-0.0377405
0.461944
-0.039433
0.439508
-0.0409383
0.417994
-0.0421673
0.397388
-0.0432822
0.377686
-0.0442559
0.358899
-0.0450706
0.341048
-0.0457631
0.323976
-0.0462995
0.307634
-0.0465865
0.291973
-0.0465459
0.276997
-0.0462462
0.262735
-0.0459741
0.249345
-0.0458548
0.236701
-0.0456703
0.224482
-0.0452317
0.212743
-0.044652
0.20172
-0.0440033
0.191258
-0.043256
0.181241
-0.042366
0.171736
-0.0413166
0.162738
-0.0401742
0.15421
-0.0389125
0.146087
-0.0375157
0.138355
-0.0360458
0.131004
-0.0344555
0.123984
-0.0327467
0.117311
-0.031137
0.111159
-0.0291278
0.104919
-0.0265601
0.0978358
-0.0227057
0.0887695
-0.016133
0.0737018
-0.00626387
0.0461249
0.00704554
-0.000995985
0.963825
-0.00523419
0.966677
-0.0089969
0.921865
-0.0121224
0.876857
-0.0154602
0.834875
-0.0185921
0.794551
-0.0212347
0.75616
-0.0237682
0.720228
-0.0260022
0.685918
-0.0282454
0.6534
-0.0304465
0.62241
-0.0326039
0.59269
-0.0343621
0.564204
-0.0358
0.537076
-0.0371333
0.511335
-0.0385742
0.486858
-0.0399617
0.463331
-0.0412196
0.440766
-0.0424693
0.419244
-0.0437292
0.398648
-0.0448851
0.378842
-0.0459587
0.359973
-0.0469297
0.342019
-0.0477549
0.324801
-0.0484462
0.308325
-0.049079
0.292606
-0.0497478
0.277666
-0.0503938
0.263381
-0.0507207
0.249672
-0.0505544
0.236535
-0.0501298
0.224057
-0.049701
0.212314
-0.0491526
0.201171
-0.0483863
0.190491
-0.0474514
0.180306
-0.046422
0.170707
-0.0453167
0.161633
-0.0440666
0.15296
-0.0427095
0.14473
-0.0412727
0.136918
-0.0396986
0.12943
-0.0380495
0.122335
-0.0364217
0.115683
-0.034657
0.109395
-0.0322581
0.102521
-0.0291475
0.0947252
-0.0241907
0.0838127
-0.0157044
0.0652155
-0.00403006
0.0344505
0.00301548
-0.0030208
0.966845
-0.00680653
0.970463
-0.00960811
0.924666
-0.0121498
0.879398
-0.0146542
0.837379
-0.017647
0.797544
-0.0208079
0.759321
-0.0234775
0.722898
-0.0259
0.68834
-0.0281198
0.65562
-0.0302126
0.624503
-0.0324111
0.594889
-0.0348418
0.566634
-0.0374338
0.539668
-0.0398187
0.51372
-0.041995
0.489035
-0.0441309
0.465467
-0.0462005
0.442836
-0.0480903
0.421134
-0.0497556
0.400313
-0.0512579
0.380344
-0.0525297
0.361244
-0.0536017
0.343091
-0.0545196
0.325719
-0.0552273
0.309033
-0.0556327
0.293011
-0.0556395
0.277672
-0.0553064
0.263048
-0.0549381
0.249304
-0.0547466
0.236343
-0.0545188
0.223829
-0.0539878
0.211783
-0.0532599
0.200444
-0.0524487
0.18968
-0.0515518
0.179409
-0.0505171
0.169672
-0.0493159
0.160432
-0.0480302
0.151674
-0.0466363
0.143336
-0.0450983
0.13538
-0.0435047
0.127836
-0.0418615
0.120692
-0.0402427
0.114065
-0.0381106
0.107263
-0.0354249
0.0998348
-0.031429
0.0907293
-0.0250185
0.0774022
-0.0152492
0.0554463
-0.00252498
0.0217262
0.000490499
-0.00396992
0.970815
-0.00652175
0.973015
-0.0092026
0.927347
-0.0119846
0.88218
-0.014792
0.840187
-0.0175946
0.800346
-0.0207638
0.76249
-0.0237951
0.725929
-0.0268389
0.691384
-0.0297329
0.658514
-0.0323977
0.627168
-0.0348843
0.597375
-0.0370164
0.568767
-0.0388855
0.541537
-0.0409583
0.515793
-0.0430234
0.4911
-0.0449229
0.467367
-0.0467108
0.444624
-0.048384
0.422807
-0.0499564
0.401885
-0.0515408
0.381929
-0.0530542
0.362758
-0.0543957
0.344432
-0.0555294
0.326853
-0.0564725
0.309976
-0.0572919
0.29383
-0.0581016
0.278482
-0.0588929
0.263839
-0.0593554
0.249766
-0.059214
0.236202
-0.0587003
0.223316
-0.0581774
0.21126
-0.0575662
0.199832
-0.0567395
0.188853
-0.0557269
0.178397
-0.0546108
0.168556
-0.0534262
0.159247
-0.0520978
0.150346
-0.0506564
0.141895
-0.0491634
0.133887
-0.0475559
0.126229
-0.0460599
0.119196
-0.0442749
0.11228
-0.0419407
0.104929
-0.0387986
0.0966926
-0.0339101
0.0858409
-0.0254883
0.0689804
-0.0126053
0.0425633
-0.00151296
0.0106338
-0.00102246
-0.000354046
0.971169
-0.00296001
0.975621
-0.00745922
0.931846
-0.011274
0.885995
-0.0139618
0.842874
-0.0164168
0.802801
-0.0190296
0.765103
-0.021829
0.728728
-0.0246685
0.694224
-0.0275537
0.661399
-0.0304208
0.630035
-0.0331856
0.60014
-0.0362637
0.571845
-0.0394074
0.544681
-0.0421723
0.518558
-0.0448025
0.49373
-0.0475275
0.470092
-0.0501781
0.447274
-0.0526805
0.425309
-0.054949
0.404154
-0.0569804
0.38396
-0.0587275
0.364505
-0.0602787
0.345984
-0.0616178
0.328192
-0.0626976
0.311056
-0.0634326
0.294565
-0.0636938
0.278743
-0.0634947
0.26364
-0.0631631
0.249434
-0.0630166
0.236055
-0.0628845
0.223183
-0.0624179
0.210793
-0.0616737
0.199088
-0.0608119
0.187991
-0.059885
0.17747
-0.0588384
0.167509
-0.0576188
0.158028
-0.056319
0.149046
-0.0549417
0.140517
-0.053414
0.132359
-0.0519996
0.124814
-0.0504638
0.11766
-0.0483934
0.110209
-0.045752
0.102287
-0.0418766
0.0928173
-0.0352726
0.0792368
-0.0242853
0.0579931
-0.00832779
0.0266058
-0.00110668
0.00341273
-0.00212914
0.0071395
0.96403
0.00207108
0.980689
-0.00445292
0.93837
-0.0097111
0.891253
-0.013272
0.846435
-0.0163378
0.805867
-0.0190062
0.767772
-0.0218666
0.731589
-0.0248516
0.697209
-0.02774
0.664287
-0.0307071
0.633002
-0.0336042
0.603037
-0.0361858
0.574426
-0.0386945
0.547189
-0.0414902
0.521353
-0.0442479
0.496488
-0.0467287
0.472573
-0.0491324
0.449678
-0.0514463
0.427623
-0.0537432
0.406451
-0.0559945
0.386211
-0.0580807
0.366591
-0.060022
0.347925
-0.061692
0.329862
-0.0631181
0.312482
-0.0643411
0.295788
-0.0654947
0.279897
-0.0666352
0.26478
-0.0674509
0.25025
-0.0675399
0.236144
-0.0670942
0.222738
-0.0665741
0.210273
-0.065991
0.198505
-0.0652241
0.187225
-0.0642574
0.176503
-0.063164
0.166416
-0.062021
0.156885
-0.0607543
0.147779
-0.0593562
0.139119
-0.0580534
0.131056
-0.0567365
0.123497
-0.0549257
0.115849
-0.052728
0.108011
-0.0496175
0.0991767
-0.0441618
0.0873615
-0.0342654
0.0693404
-0.0186559
0.0423836
-0.00428932
0.0122392
-0.000299994
-0.000576593
-0.00242913
0.0155289
0.948501
0.00628739
0.98993
-0.000385375
0.945043
-0.0062697
0.897138
-0.0106636
0.850829
-0.0142289
0.809432
-0.0165888
0.770131
-0.0190932
0.734093
-0.0220092
0.700125
-0.0247063
0.666984
-0.0276226
0.635918
-0.0307496
0.606164
-0.0342008
0.577877
-0.0376831
0.550672
-0.0408899
0.52456
-0.0441887
0.499786
-0.0476595
0.476044
-0.0510449
0.453063
-0.0543198
0.430898
-0.0573945
0.409525
-0.0601497
0.388967
-0.0627259
0.369167
-0.0650193
0.350218
-0.0670669
0.33191
-0.0688233
0.314239
-0.070199
0.297164
-0.0710359
0.280734
-0.0712459
0.26499
-0.0711228
0.250127
-0.071149
0.236171
-0.0712466
0.222835
-0.0709957
0.210022
-0.0703633
0.197873
-0.0695303
0.186392
-0.0686401
0.175613
-0.067673
0.165449
-0.0665382
0.15575
-0.0653282
0.146569
-0.0641461
0.137937
-0.062939
0.129849
-0.0613602
0.121919
-0.0594416
0.113931
-0.056793
0.105363
-0.0522065
0.0945901
-0.0437502
0.0789053
-0.0298107
0.055401
-0.0113646
0.0239375
-0.00225858
0.00313325
-2.30002e-05
-0.00281218
-0.00245214
0.0180722
0.930429
0.00808429
0.999918
0.00393548
0.949192
-0.00170761
0.902781
-0.00722204
0.856344
-0.0120358
0.814246
-0.0149137
0.773009
-0.0179264
0.737106
-0.0203718
0.70257
-0.0232808
0.669893
-0.0263615
0.638999
-0.0292684
0.609071
-0.0320807
0.58069
-0.0352331
0.553824
-0.0387099
0.528037
-0.0420045
0.503081
-0.0451869
0.479226
-0.0483979
0.456274
-0.0515692
0.43407
-0.0547489
0.412705
-0.0579208
0.392138
-0.0609387
0.372185
-0.0637336
0.353013
-0.0662727
0.334449
-0.0684913
0.316457
-0.0704343
0.299107
-0.0722109
0.28251
-0.073937
0.266717
-0.0753717
0.251562
-0.075987
0.236786
-0.0758235
0.222672
-0.0754001
0.209599
-0.0748767
0.197349
-0.0742083
0.185723
-0.073336
0.17474
-0.0722974
0.16441
-0.0712433
0.154696
-0.0701721
0.145498
-0.0690064
0.136771
-0.0676692
0.128512
-0.0660569
0.120306
-0.0637902
0.111664
-0.0598884
0.101461
-0.0526228
0.0873245
-0.0398563
0.0661387
-0.0202645
0.0358092
-0.00522222
0.00889513
-0.00067421
-0.00141476
0.000231791
-0.00371818
-0.00222034
0.013549
0.91688
0.00760239
1.00586
0.00656397
0.95023
0.00210652
0.907238
-0.00145245
0.859903
-0.00594884
0.818743
-0.00964267
0.776703
-0.0130686
0.740532
-0.0158566
0.705358
-0.0188374
0.672874
-0.0218346
0.641996
-0.0252798
0.612516
-0.0290289
0.584439
-0.0325947
0.55739
-0.0362776
0.53172
-0.0403491
0.507152
-0.0445364
0.483413
-0.0487277
0.460466
-0.0529193
0.438261
-0.0569714
0.416757
-0.06077
0.395937
-0.0644069
0.375822
-0.0677548
0.356361
-0.070859
0.337553
-0.0736419
0.31924
-0.0760169
0.301482
-0.0778525
0.284346
-0.0788844
0.267748
-0.0792596
0.251937
-0.0795992
0.237125
-0.0800167
0.223089
-0.0801028
0.209685
-0.0796955
0.196942
-0.0789236
0.184951
-0.0780242
0.173841
-0.0771033
0.163489
-0.0760773
0.15367
-0.0749386
0.144359
-0.0738244
0.135657
-0.0725238
0.127212
-0.0705893
0.118372
-0.0672625
0.108337
-0.0610024
0.0952009
-0.0492153
0.0755375
-0.0297862
0.0467096
-0.0103668
0.0163898
-0.00230152
0.000829848
-2.13026e-05
-0.00369498
0.000254487
-0.00399397
-0.00196586
0.00690231
0.909977
0.00597781
1.00679
0.00819553
0.948012
0.00489744
0.910536
0.0029694
0.861831
-0.00139681
0.823109
-0.00546991
0.780776
-0.00943967
0.744501
-0.0119489
0.707867
-0.015644
0.676569
-0.0186746
0.645027
-0.0216458
0.615488
-0.0252213
0.588014
-0.0289755
0.561144
-0.0327681
0.535513
-0.0365447
0.510929
-0.0404392
0.487308
-0.0445473
0.464574
-0.0486931
0.442407
-0.0529238
0.420988
-0.0572376
0.400251
-0.061459
0.380044
-0.0654607
0.360363
-0.0692013
0.341294
-0.0725847
0.322623
-0.0755863
0.304484
-0.0783025
0.287062
-0.0808793
0.270325
-0.0832499
0.254308
-0.0847693
0.238645
-0.0852092
0.223529
-0.0850367
0.209513
-0.0845766
0.196482
-0.0839512
0.184326
-0.0831098
0.173
-0.0820285
0.162408
-0.080949
0.15259
-0.0799494
0.14336
-0.0787808
0.134489
-0.077035
0.125466
-0.0741311
0.115468
-0.0687627
0.102969
-0.0580481
0.0844863
-0.0392634
0.0567528
-0.0169569
0.0244031
-0.00468729
0.00412014
-0.00082014
-0.0030373
0.00022474
-0.00473986
0.00023644
-0.00400567
-0.00172942
0.000586724
0.909391
0.00328173
1.00409
0.00989435
0.9414
0.00785071
0.91258
0.00806453
0.861617
0.00475732
0.826416
0.00143453
0.784099
-0.00279336
0.748729
-0.00641622
0.71149
-0.00960912
0.679762
-0.0129377
0.648355
-0.0172172
0.619767
-0.0207129
0.59151
-0.0245813
0.565013
-0.0288874
0.539819
-0.0335223
0.515564
-0.0383556
0.492141
-0.0433099
0.469528
-0.0484942
0.447591
-0.0535862
0.42608
-0.0585967
0.405261
-0.0635027
0.38495
-0.0682609
0.365121
-0.0727628
0.345795
-0.0769378
0.326798
-0.0807082
0.308254
-0.0839091
0.290263
-0.0862949
0.272711
-0.0876447
0.255657
-0.0885589
0.239559
-0.089452
0.224422
-0.0900018
0.210062
-0.0899395
0.196419
-0.0892507
0.183637
-0.0881914
0.17194
-0.087122
0.161338
-0.0860115
0.15148
-0.0847556
0.142104
-0.0830589
0.132792
-0.0804724
0.122879
-0.0758869
0.110882
-0.0663809
0.0934627
-0.0486179
0.0667233
-0.0243071
0.032442
-0.00812005
0.00821606
-0.00258018
-0.00141972
-0.000935143
-0.00468233
-0.000312809
-0.00536219
-1.97849e-05
-0.00429869
-0.0017492
-0.00353235
0.912923
0.000327636
1.00023
0.00938776
0.93234
0.00791625
0.914051
0.00928185
0.860251
0.00727063
0.828427
0.00609171
0.785278
0.00193758
0.752883
-0.00178111
0.715209
-0.00578523
0.683766
-0.0088851
0.651455
-0.0121682
0.62305
-0.0160933
0.595435
-0.0200295
0.568949
-0.0241495
0.543939
-0.0283999
0.519814
-0.0329227
0.496664
-0.0377215
0.474327
-0.0427229
0.452593
-0.0480761
0.431433
-0.0535829
0.410768
-0.0591729
0.39054
-0.0646551
0.370603
-0.0699145
0.351055
-0.0748271
0.331711
-0.0793558
0.312783
-0.0834656
0.294373
-0.0872031
0.276449
-0.0908002
0.259254
-0.0936857
0.242444
-0.0952687
0.226005
-0.0956923
0.210486
-0.0954069
0.196134
-0.0947559
0.182986
-0.0937804
0.170965
-0.0924169
0.159975
-0.0908251
0.149888
-0.0889937
0.140272
-0.0865631
0.130361
-0.0824811
0.118797
-0.0739776
0.102379
-0.0571469
0.0766321
-0.0318668
0.0414432
-0.0123659
0.0129412
-0.00489521
0.000745351
-0.00248842
-0.00382651
-0.00156657
-0.00560419
-0.00100805
-0.00592071
-0.000430511
-0.00487623
-0.00217971
-0.00458793
0.917511
-0.0015046
0.997151
0.00769214
0.923143
0.00717079
0.914573
0.0109268
0.856495
0.00983071
0.829523
0.00961286
0.785496
0.00682856
0.755668
0.00407346
0.717964
0.000510376
0.687329
-0.00339174
0.655357
-0.00737627
0.627035
-0.0105396
0.598598
-0.0148955
0.573305
-0.0195405
0.548584
-0.0243742
0.524648
-0.0295733
0.501863
-0.035211
0.479964
-0.0411507
0.458532
-0.0471752
0.437458
-0.0533644
0.416957
-0.0596257
0.396801
-0.0659066
0.376884
-0.0720756
0.357224
-0.0780392
0.337675
-0.0836279
0.318372
-0.0886155
0.29936
-0.092856
0.280689
-0.0958526
0.262251
-0.0978338
0.244426
-0.099618
0.22779
-0.100884
0.211752
-0.101406
0.196656
-0.10091
0.18249
-0.0994521
0.169507
-0.097721
0.158244
-0.0955791
0.147746
-0.0927989
0.137492
-0.0884887
0.126051
-0.0805081
0.110817
-0.0647495
0.0866202
-0.0395983
0.0514809
-0.0166792
0.0185241
-0.00651015
0.0027721
-0.00278998
-0.00297481
-0.00144567
-0.00517082
-0.000960321
-0.00608954
-0.000761765
-0.00611927
-0.000451786
-0.00518621
-0.0026315
-0.0034956
0.921007
-0.000704793
0.99436
0.00439799
0.91804
0.00401113
0.91496
0.00883439
0.851672
0.00862818
0.829729
0.010559
0.783565
0.00858249
0.757644
0.00666181
0.719884
0.00338693
0.690604
0.000728062
0.658016
-0.00279237
0.630555
-0.00679233
0.602598
-0.0104673
0.57698
-0.0143288
0.552445
-0.018757
0.529076
-0.0236842
0.50679
-0.0287993
0.48508
-0.034356
0.464089
-0.040569
0.443671
-0.0471517
0.42354
-0.0540348
0.403684
-0.061044
0.383893
-0.0680011
0.364181
-0.0747785
0.344452
-0.0812539
0.324847
-0.0872935
0.3054
-0.0927548
0.28615
-0.0978336
0.26733
-0.102551
0.249143
-0.105882
0.231121
-0.107699
0.213569
-0.108084
0.19704
-0.107615
0.182022
-0.106475
0.168367
-0.104004
0.155772
-0.100679
0.144422
-0.0954602
0.132273
-0.0867779
0.117369
-0.0717137
0.0957526
-0.0473427
0.0622492
-0.0203274
0.0244655
-0.00518637
0.00338314
0.00129269
-0.00370697
0.00373362
-0.00541574
0.00406952
-0.00550671
0.00315908
-0.00517911
0.00170831
-0.0046685
0.000454105
-0.003932
-0.00217739
-0.00166526
0.922672
0.00150267
0.991192
0.00352223
0.916021
0.0030779
0.915404
0.00737946
0.84737
0.00741934
0.82969
0.00995635
0.781028
0.0100474
0.757553
0.00980707
0.720125
0.00693107
0.69348
0.00489697
0.66005
0.00197788
0.633474
-0.00137918
0.605955
-0.00558197
0.581183
-0.00978167
0.556645
-0.014557
0.533851
-0.0197004
0.511934
-0.0254729
0.490852
-0.0317822
0.470398
-0.0383972
0.450286
-0.0454244
0.430567
-0.0528292
0.411089
-0.0605457
0.39161
-0.0684399
0.372075
-0.0763743
0.352386
-0.0841057
0.332578
-0.0913792
0.312673
-0.0979443
0.292716
-0.103393
0.272778
-0.107332
0.253082
-0.110469
0.234259
-0.112919
0.216019
-0.114684
0.198805
-0.114986
0.182323
-0.113452
0.166833
-0.110083
0.152404
-0.104278
0.138617
-0.0948533
0.122848
-0.0794324
0.101948
-0.0535964
0.0699165
-0.0227074
0.0313602
-0.000287777
0.00204588
0.00947296
-0.00637759
0.0131298
-0.00736377
0.0135182
-0.00580419
0.0120137
-0.0040022
0.00918147
-0.00234689
0.00560862
-0.00109565
0.00209514
-0.000418526
-8.2254e-05
0.000909719
0.921762
0.00419937
0.987903
0.00175782
0.918462
0.00196586
0.915196
0.00538897
0.843947
0.00488696
0.830192
0.00738148
0.778533
0.00784563
0.757089
0.00933337
0.718637
0.00829427
0.694519
0.00650151
0.661843
0.00384528
0.63613
0.00145454
0.608346
-0.00129936
0.583936
-0.00473031
0.560076
-0.0088454
0.537967
-0.0133869
0.516475
-0.0183215
0.495787
-0.023921
0.475998
-0.0303802
0.456745
-0.0375269
0.437714
-0.0453197
0.418882
-0.053583
0.399873
-0.062144
0.380636
-0.070816
0.361058
-0.0794274
0.34119
-0.0877562
0.321002
-0.0956153
0.300575
-0.102984
0.280147
-0.10987
0.259968
-0.115448
0.239837
-0.119503
0.220073
-0.121728
0.20103
-0.121761
0.182356
-0.120344
0.165416
-0.116092
0.148152
-0.107452
0.129977
-0.0906547
0.106051
-0.0617541
0.0730475
-0.0258584
0.0340208
0.00232257
0.0031792
0.0150819
-0.0107134
0.0190371
-0.0103328
0.0193999
-0.00772663
0.0177533
-0.00415755
0.0148738
-0.00112269
0.0111117
0.00141517
0.00689447
0.00312161
0.00270458
0.00377136
0.00262232
0.001248
0.920514
0.00458189
0.984569
0.00260421
0.92044
0.00288664
0.914913
0.00422437
0.84261
0.00407131
0.830345
0.00525231
0.777352
0.00708407
0.755257
0.00903599
0.716685
0.00849957
0.695056
0.00876199
0.661581
0.00723887
0.637653
0.00510841
0.610477
0.00198225
0.587063
-0.00140193
0.56346
-0.00523411
0.541799
-0.00974409
0.520985
-0.0151601
0.501203
-0.0210923
0.48193
-0.0275808
0.463234
-0.034797
0.44493
-0.0427284
0.426813
-0.0514074
0.408552
-0.0607073
0.389936
-0.0704513
0.370802
-0.0803087
0.351047
-0.0900904
0.330784
-0.0995327
0.310017
-0.108014
0.288629
-0.114884
0.266837
-0.120583
0.245536
-0.124839
0.22433
-0.127857
0.204048
-0.130096
0.184595
-0.128155
0.163475
-0.120489
0.140486
-0.103839
0.113328
-0.0716701
0.0738819
-0.032034
0.0334113
-0.00308823
0.00507507
0.0113328
-0.0112419
0.0150066
-0.0143872
0.01651
-0.0118362
0.0161624
-0.00737896
0.0143743
-0.00236954
0.0117836
0.00146805
0.00867306
0.00452572
0.00522644
0.00656823
0.00194827
0.00704954
0.00457059
0.000314264
0.9202
0.00353468
0.981348
0.000218503
0.923756
0.00254094
0.912591
0.00242881
0.842722
0.00209149
0.830682
0.00258804
0.776856
0.00347579
0.75437
0.0056887
0.714472
0.00726056
0.693484
0.00667869
0.662162
0.00622506
0.638107
0.00602611
0.610676
0.00438169
0.588707
0.00237745
0.565464
-0.000525092
0.544701
-0.00393609
0.524396
-0.00790578
0.505172
-0.0130005
0.487025
-0.0190407
0.469274
-0.0259655
0.451855
-0.0338847
0.434732
-0.0427983
0.417466
-0.0524827
0.39962
-0.0626804
0.381
-0.073232
0.361599
-0.0839909
0.341543
-0.0947126
0.320739
-0.10501
0.298926
-0.114813
0.27664
-0.123421
0.254144
-0.130696
0.231605
-0.135807
0.209159
-0.136823
0.18561
-0.13087
0.157523
-0.115618
0.125234
-0.0830663
0.0807759
-0.0497718
0.0405874
-0.0275983
0.0112378
-0.0192075
-0.00331567
-0.0173284
-0.013121
-0.0135644
-0.0181511
-0.00874821
-0.0166524
-0.00391885
-0.0122083
-0.00113521
-0.00515318
-0.000272776
0.000605611
2.62323e-05
0.00422671
-0.000271384
0.00686585
-0.000461408
0.00723956
0.00410918
0.000672334
0.919528
0.00183174
0.980189
-0.000373267
0.925961
0.00296521
0.909253
0.000454767
0.845232
0.00212762
0.829009
0.00165554
0.777328
0.00260941
0.753416
0.00401417
0.713067
0.00606266
0.691435
0.0078819
0.660343
0.00721603
0.638773
0.00680425
0.611087
0.00564877
0.589863
0.00386048
0.567253
0.00158568
0.546976
-0.00174283
0.527725
-0.00605124
0.509481
-0.0107857
0.491759
-0.0164157
0.474904
-0.0229034
0.458343
-0.0305533
0.442382
-0.0395543
0.426467
-0.0496495
0.409716
-0.0606551
0.392006
-0.0723397
0.373283
-0.0846097
0.353813
-0.0970875
0.333216
-0.109139
0.310978
-0.119518
0.287019
-0.128847
0.263473
-0.136835
0.239593
-0.140274
0.212599
-0.138866
0.184202
-0.127849
0.146506
-0.102917
0.100302