/*--------------------------------*- C++ -*----------------------------------*\
| =========                 |                                                 |
| \\      /  F ield         | OpenFOAM: The Open Source CFD Toolbox           |
|  \\    /   O peration     | Version:  v1912                                 |
|   \\  /    A nd           | Website:  www.openfoam.com                      |
|    \\/     M anipulation  |                                                 |
\*---------------------------------------------------------------------------*/
FoamFile
{
    version     2.0;
    format      ascii;
    class       volVectorField;
    location    "0.09";
    object      U;
}
// * * * * * * * * * * * * * * * * * * * * * * * * * * * * * * * * * * * * * //

dimensions      [0 1 -1 0 0 0 0];


internalField   nonuniform List<vector> 
6600
(
(39.8463 -0.0491981 0)
(40.0907 -0.0529206 1.11589e-20)
(40.1586 0.0350512 7.8394e-19)
(40.203 0.132633 0)
(40.243 0.230485 9.50952e-19)
(40.294 0.351143 3.19288e-20)
(40.3362 0.482568 -3.54556e-20)
(40.3825 0.63102 -3.95452e-20)
(40.4244 0.780482 8.19645e-19)
(40.4636 0.947143 -1.14408e-19)
(40.491 1.12248 0)
(40.5143 1.30193 -1.06112e-18)
(40.5323 1.50025 0)
(40.5397 1.70578 -1.17193e-18)
(40.5415 1.93171 -1.69101e-18)
(40.5222 2.17649 -9.23756e-19)
(40.4943 2.45431 0)
(40.4556 2.75221 0)
(40.4184 3.07113 1.61299e-18)
(40.3428 3.39823 -1.48227e-18)
(40.2361 3.7512 -2.25466e-19)
(40.1424 4.11765 -8.68186e-19)
(40.0386 4.50843 -1.64655e-18)
(39.9176 4.92437 3.77001e-19)
(39.7845 5.36551 1.40912e-18)
(39.6483 5.83593 0)
(39.492 6.33267 3.56774e-18)
(39.2562 6.83702 0)
(39.0419 7.35972 -1.8511e-18)
(38.8857 7.95324 -1.22001e-18)
(38.7017 8.64075 -3.48009e-19)
(38.4573 9.35893 -1.54787e-18)
(38.2224 10.0917 -6.60113e-19)
(38 10.8991 1.33872e-18)
(37.7537 11.7708 3.64158e-19)
(37.5091 12.6935 1.58904e-18)
(37.2764 13.6757 3.16571e-18)
(37.0514 14.7368 3.05808e-18)
(36.837 15.8811 -2.24813e-18)
(36.6509 17.0946 2.37988e-18)
(36.4754 18.395 1.24358e-18)
(36.3164 19.7798 0)
(36.2057 21.2489 -1.67005e-19)
(36.1581 22.8395 4.8056e-19)
(36.1553 24.4974 0)
(36.2253 26.3232 -1.02566e-18)
(36.2768 28.0857 -2.61569e-18)
(36.6634 30.3429 0)
(35.097 31.2387 0)
(25.4109 24.3404 -1.96035e-18)
(39.7255 -0.0427547 6.58738e-19)
(40.1725 -0.0757713 -6.69104e-19)
(40.2196 0.0415852 0)
(40.2617 0.158398 -1.24903e-20)
(40.3206 0.289291 8.58583e-19)
(40.3637 0.43261 2.99856e-20)
(40.4216 0.586192 -1.71249e-22)
(40.4742 0.738935 -3.68052e-20)
(40.5264 0.91012 0)
(40.5622 1.09857 -1.41656e-18)
(40.6034 1.30327 -5.12185e-20)
(40.6389 1.51267 8.80128e-19)
(40.6681 1.7272 9.30817e-19)
(40.6799 1.9591 6.99403e-19)
(40.6831 2.20761 -2.77153e-21)
(40.6866 2.46094 9.76736e-20)
(40.6616 2.7113 -8.59678e-19)
(40.6108 2.96879 0)
(40.5598 3.24721 0)
(40.5221 3.56096 1.52728e-18)
(40.4749 3.89927 2.14057e-19)
(40.3865 4.27732 -1.1432e-18)
(40.2957 4.67854 -1.05211e-18)
(40.1919 5.10516 -1.22125e-18)
(40.0733 5.55789 -1.02275e-18)
(39.9424 6.04543 -4.35947e-19)
(39.7828 6.56316 -5.8801e-19)
(39.6758 7.17556 -5.82828e-19)
(39.5524 7.84002 1.82231e-18)
(39.3543 8.48043 3.07743e-19)
(39.1204 9.1163 -2.36647e-18)
(38.9456 9.82531 2.18752e-18)
(38.7962 10.6051 1.51182e-18)
(38.6086 11.4205 -1.97452e-18)
(38.4117 12.285 3.84969e-19)
(38.2267 13.2012 -1.62521e-18)
(38.0687 14.1879 1.16386e-18)
(37.9199 15.2402 -1.1108e-18)
(37.802 16.3486 -6.15441e-19)
(37.7261 17.5462 -6.80712e-19)
(37.6727 18.8057 0)
(37.6592 20.1463 0)
(37.6934 21.5703 2.53631e-19)
(37.7597 23.0765 -3.5895e-19)
(37.896 24.6387 -1.78288e-18)
(38.1373 26.3638 1.05906e-18)
(38.3934 28.0647 4.30869e-18)
(38.8851 30.024 0)
(37.287 30.5038 -4.97565e-18)
(26.3536 23.1493 2.18348e-18)
(39.6552 -0.0192932 -5.1651e-20)
(40.2718 -0.0732083 6.82604e-19)
(40.3111 0.0728893 6.69318e-19)
(40.3821 0.197642 -3.5488e-22)
(40.4098 0.333985 -1.1411e-19)
(40.4738 0.490567 2.80214e-20)
(40.5271 0.65122 0)
(40.5854 0.824243 0)
(40.644 0.992231 0)
(40.7069 1.17779 7.41647e-19)
(40.7445 1.36213 -4.62266e-20)
(40.7721 1.56785 -8.85901e-19)
(40.8045 1.79027 -5.03415e-19)
(40.8322 2.0282 1.00666e-18)
(40.8503 2.28211 5.70896e-19)
(40.848 2.56977 -8.97099e-20)
(40.8533 2.88766 1.71562e-18)
(40.8555 3.23761 -8.60127e-19)
(40.8198 3.57319 -9.92026e-19)
(40.7562 3.93903 0)
(40.6838 4.31941 -6.6566e-19)
(40.6253 4.7162 9.15405e-19)
(40.5526 5.1415 1.06472e-18)
(40.4681 5.59587 1.23664e-18)
(40.3797 6.07414 1.09909e-18)
(40.2885 6.58471 -1.14736e-19)
(40.1818 7.11344 -2.14096e-19)
(39.9921 7.63272 -6.30661e-19)
(39.8441 8.19606 -2.79104e-19)
(39.7713 8.84259 1.10215e-18)
(39.6704 9.56565 3.52547e-19)
(39.4984 10.2942 0)
(39.3534 11.0396 -1.68442e-18)
(39.2402 11.8602 4.3724e-19)
(39.113 12.7342 9.36256e-19)
(38.9976 13.6552 1.18388e-18)
(38.912 14.6242 -7.91729e-19)
(38.8537 15.6529 -4.42625e-19)
(38.821 16.7482 4.3606e-19)
(38.8368 17.8951 0)
(38.8891 19.1129 4.85893e-19)
(38.9821 20.3901 0)
(39.1511 21.724 0)
(39.417 23.1539 1.89737e-18)
(39.7675 24.6243 1.16425e-18)
(40.2053 26.2177 -2.51514e-18)
(40.6898 27.8338 -2.63282e-18)
(41.2319 29.5269 0)
(39.4045 29.5356 -3.08326e-18)
(26.9343 21.6176 3.3583e-18)
(39.6057 -0.0259848 -6.1151e-19)
(40.4031 -0.0591083 4.51908e-21)
(40.422 0.133813 -6.86915e-19)
(40.474 0.249208 -6.23393e-19)
(40.5413 0.408909 -7.64496e-19)
(40.5921 0.569797 -3.57721e-19)
(40.6606 0.73539 -2.73969e-20)
(40.7114 0.914323 0)
(40.7756 1.1145 4.81937e-19)
(40.8257 1.32166 5.69333e-19)
(40.8698 1.53836 -4.05011e-20)
(40.9166 1.76886 -4.59506e-20)
(40.9587 2.00791 -3.9287e-19)
(40.9895 2.26845 -1.40347e-19)
(41.0092 2.54125 -3.00494e-20)
(41.0334 2.81197 -7.67048e-20)
(41.0241 3.07771 -4.77478e-20)
(40.9921 3.37405 9.67778e-19)
(40.9854 3.70252 1.29623e-18)
(40.984 4.04755 0)
(40.9505 4.42237 1.33181e-19)
(40.8944 4.83036 0)
(40.8448 5.25856 0)
(40.781 5.71627 -2.36654e-19)
(40.709 6.20095 7.25733e-19)
(40.6231 6.72424 8.41753e-19)
(40.5155 7.27386 -1.71552e-19)
(40.4728 7.91058 8.94636e-19)
(40.4041 8.59292 0)
(40.2753 9.25257 0)
(40.132 9.91973 4.09372e-19)
(40.0534 10.6633 0)
(40.0015 11.4609 4.46225e-19)
(39.9233 12.276 5.5745e-19)
(39.851 13.1307 -1.0313e-18)
(39.8064 14.0297 -8.76302e-19)
(39.8037 14.9908 2.51493e-19)
(39.828 16.0034 -8.77684e-20)
(39.8997 17.0502 3.45692e-19)
(40.0299 18.1677 4.01783e-19)
(40.2053 19.3222 -1.65161e-18)
(40.4454 20.5312 0)
(40.7559 21.7956 0)
(41.1146 23.1026 -1.24321e-18)
(41.5653 24.4316 -2.43376e-18)
(42.1269 25.8803 -6.9495e-19)
(42.7389 27.4029 -4.35402e-18)
(43.1951 28.703 4.80868e-18)
(40.9576 28.2409 6.8411e-18)
(27.0019 19.7581 0)
(39.534 0.0174293 -1.90595e-21)
(40.5767 -0.035862 4.69302e-19)
(40.5699 0.19236 5.11769e-19)
(40.6424 0.307305 6.46127e-19)
(40.6754 0.468175 0)
(40.7388 0.633717 6.20386e-20)
(40.808 0.800344 0)
(40.8901 0.986528 -2.49993e-20)
(40.9533 1.17304 -8.49073e-19)
(41.0157 1.37261 -5.66158e-19)
(41.0587 1.59327 3.38301e-20)
(41.0916 1.81639 3.78995e-20)
(41.1364 2.05644 -4.21629e-20)
(41.1827 2.318 -4.25736e-19)
(41.2224 2.60094 -9.08822e-19)
(41.2405 2.9239 6.06593e-20)
(41.2746 3.27578 -1.09995e-18)
(41.2975 3.63059 8.02743e-20)
(41.2752 4.0104 -4.09029e-19)
(41.2328 4.418 -2.07149e-19)
(41.219 4.82333 6.6095e-19)
(41.194 5.25033 0)
(41.1586 5.70597 0)
(41.1183 6.18774 -2.81339e-19)
(41.0748 6.69642 -4.67793e-19)
(41.0353 7.23516 4.54956e-19)
(40.9867 7.79301 -1.23044e-19)
(40.8503 8.3247 0)
(40.7714 8.90357 1.40095e-19)
(40.779 9.56571 -1.56049e-19)
(40.7666 10.2947 -4.16075e-19)
(40.681 11.0261 -2.80563e-19)
(40.6415 11.7781 1.45537e-19)
(40.6524 12.5989 -6.23203e-20)
(40.6568 13.4537 6.93468e-20)
(40.6816 14.3444 0)
(40.7549 15.2694 2.1224e-20)
(40.8727 16.2381 1.07558e-18)
(41.0282 17.2565 -5.41856e-19)
(41.2464 18.2986 -7.3627e-19)
(41.517 19.3884 1.1821e-18)
(41.8397 20.5082 0)
(42.2475 21.6476 0)
(42.7689 22.8449 -2.31821e-18)
(43.3931 24.0511 5.07386e-18)
(44.0945 25.3395 1.36633e-18)
(44.8254 26.7165 2.65788e-18)
(45.1422 27.7272 -5.78014e-18)
(42.2671 26.7315 4.92261e-19)
(26.5479 17.6182 -9.22039e-18)
(39.5017 0.0417985 4.13253e-19)
(40.717 -0.0183286 -8.59786e-20)
(40.7447 0.243428 -5.22033e-19)
(40.7958 0.350055 2.13252e-19)
(40.8435 0.532723 0)
(40.8925 0.709563 3.18989e-19)
(40.9731 0.901239 -9.42724e-21)
(41.0428 1.09134 -2.69876e-19)
(41.1099 1.30514 3.94343e-19)
(41.1764 1.53097 0)
(41.2362 1.7604 2.57189e-20)
(41.2912 2.02739 1.55832e-19)
(41.343 2.29221 -2.3326e-19)
(41.3954 2.56978 3.51032e-20)
(41.4325 2.84801 4.13107e-19)
(41.4796 3.13312 -4.36968e-20)
(41.479 3.41455 3.76931e-19)
(41.4877 3.75491 -5.51688e-20)
(41.5128 4.09599 6.28543e-20)
(41.5415 4.46497 1.32935e-19)
(41.5266 4.88182 1.83009e-19)
(41.5262 5.31212 8.41079e-23)
(41.5215 5.76616 9.73666e-20)
(41.5023 6.24909 3.66959e-19)
(41.4805 6.75855 0)
(41.448 7.30528 -3.48478e-19)
(41.4009 7.88199 6.156e-20)
(41.4398 8.54339 -8.78937e-21)
(41.44 9.2331 -9.14651e-20)
(41.386 9.90056 5.97912e-20)
(41.3317 10.5721 6.466e-20)
(41.353 11.3146 1.52269e-19)
(41.4045 12.0998 0)
(41.4419 12.8918 0)
(41.4985 13.7136 0)
(41.597 14.5623 0)
(41.7459 15.4579 1.04809e-18)
(41.9332 16.389 -1.97794e-18)
(42.1812 17.332 0)
(42.4947 18.3245 4.23425e-20)
(42.8621 19.3246 -2.6505e-19)
(43.3054 20.3474 -3.36072e-18)
(43.828 21.3981 1.85073e-18)
(44.3951 22.4494 0)
(45.0452 23.4867 1.90062e-18)
(45.7876 24.6135 -6.88815e-18)
(46.5094 25.8563 4.91504e-18)
(46.5342 26.4249 3.69297e-18)
(42.7789 24.9021 1.37155e-17)
(25.3735 15.1872 -1.02625e-17)
(39.4953 0.0491035 -4.07735e-19)
(40.847 -0.00213479 -6.77247e-19)
(40.9019 0.315292 5.52225e-21)
(41.0207 0.390733 -2.14476e-19)
(41.0501 0.604489 1.50318e-19)
(41.1119 0.788201 -6.10761e-21)
(41.1684 0.970644 1.70287e-19)
(41.2505 1.17079 2.70958e-19)
(41.3301 1.37863 1.79938e-19)
(41.4015 1.58896 -7.97753e-21)
(41.4687 1.83189 -9.10816e-20)
(41.5238 2.06014 -9.24296e-20)
(41.583 2.32151 2.02901e-19)
(41.6499 2.60064 0)
(41.7237 2.91258 0)
(41.7611 3.25915 1.16844e-20)
(41.8313 3.63936 1.85366e-19)
(41.8786 4.00182 0)
(41.8807 4.41787 1.44615e-20)
(41.8864 4.84259 -2.20695e-19)
(41.9153 5.26537 -2.087e-19)
(41.929 5.72567 -1.38562e-20)
(41.9449 6.21186 0)
(41.9575 6.71807 -1.38175e-19)
(41.9669 7.25001 -9.27047e-21)
(41.9849 7.80218 1.0343e-20)
(41.9981 8.37099 0)
(41.9212 8.91003 0)
(41.9144 9.49187 -1.5295e-19)
(42.0007 10.1452 1.92401e-19)
(42.0777 10.8588 -1.85652e-19)
(42.0832 11.5695 1.33888e-19)
(42.1475 12.2932 2.69233e-19)
(42.2741 13.0767 -6.86822e-19)
(42.4029 13.8792 1.31974e-18)
(42.5579 14.7069 5.26364e-19)
(42.7722 15.5472 -7.41575e-19)
(43.0394 16.4096 1.04129e-18)
(43.348 17.3047 -1.8903e-18)
(43.7224 18.1945 5.64299e-20)
(44.1515 19.1081 -3.1932e-19)
(44.6306 20.0259 1.7338e-18)
(45.1835 20.926 2.6869e-18)
(45.8489 21.8478 -2.9848e-18)
(46.6196 22.7613 1.9049e-18)
(47.4563 23.7743 0)
(48.0978 24.701 3.02648e-18)
(47.7949 25.034 4.61996e-18)
(42.8652 22.8907 -9.42059e-18)
(23.4405 12.5322 -2.89777e-18)
(39.5132 0.0532173 2.28441e-19)
(41.0533 0.0208941 2.90566e-19)
(41.0829 0.393844 2.08114e-21)
(41.1664 0.437717 -8.45757e-20)
(41.2458 0.675719 -2.381e-19)
(41.3032 0.849855 7.62882e-20)
(41.3695 1.04814 -2.31762e-19)
(41.4407 1.26338 2.67908e-20)
(41.5199 1.488 -1.73432e-19)
(41.6051 1.73745 -1.59281e-20)
(41.6923 1.97715 1.00276e-19)
(41.7757 2.25532 -9.89243e-20)
(41.8489 2.54083 2.68106e-20)
(41.9248 2.83168 8.1396e-22)
(41.9919 3.12234 3.663e-20)
(42.0671 3.41501 -5.01334e-20)
(42.0785 3.71624 -4.82434e-20)
(42.1316 4.08377 0)
(42.206 4.42791 0)
(42.2564 4.82428 0)
(42.286 5.26417 1.18545e-20)
(42.3352 5.70987 -1.67949e-20)
(42.3813 6.18643 1.43235e-19)
(42.414 6.69096 2.64984e-20)
(42.4477 7.2173 0)
(42.4756 7.7743 0)
(42.4952 8.36231 -2.29066e-19)
(42.6155 9.03134 1.11726e-19)
(42.6971 9.72486 -1.05936e-19)
(42.721 10.3896 1.25833e-19)
(42.7481 11.0391 4.46931e-20)
(42.8654 11.7464 5.2938e-19)
(43.0149 12.4895 -2.39228e-19)
(43.1529 13.2244 9.636e-19)
(43.3153 13.9762 -6.2643e-19)
(43.5314 14.7374 -2.9718e-19)
(43.8002 15.5304 1.69752e-19)
(44.1067 16.34 8.24884e-19)
(44.4773 17.1356 8.1865e-19)
(44.9093 17.9628 1.32823e-18)
(45.3897 18.772 -2.98264e-19)
(45.9446 19.5732 2.4788e-18)
(46.5804 20.3839 -2.75717e-18)
(47.2491 21.1636 0)
(47.9755 21.9119 0)
(48.7959 22.8119 0)
(49.1723 23.4024 0)
(48.2871 23.3993 0)
(41.8552 20.5876 -5.40304e-18)
(20.5617 9.71527 8.87296e-18)
(39.5568 0.0672532 -2.28901e-19)
(41.2864 0.0414946 0)
(41.3006 0.407317 0)
(41.3815 0.471761 8.5466e-20)
(41.4379 0.733095 8.05667e-20)
(41.5431 0.891747 -7.36038e-20)
(41.628 1.09504 6.46895e-20)
(41.7254 1.30729 -2.68762e-20)
(41.8097 1.53243 -5.20473e-20)
(41.8855 1.75018 1.07991e-20)
(41.9696 2.00181 -3.48416e-21)
(42.0577 2.24159 -1.2162e-19)
(42.1528 2.51868 -1.06682e-19)
(42.2414 2.81681 0)
(42.3442 3.15354 -3.52675e-20)
(42.4303 3.5239 6.41916e-20)
(42.5579 3.92541 2.0938e-21)
(42.6349 4.29827 2.47908e-19)
(42.6803 4.75457 -3.26551e-19)
(42.7512 5.1821 0)
(42.8099 5.63011 0)
(42.8689 6.10762 -2.78856e-19)
(42.9388 6.60905 1.73915e-19)
(43.0085 7.12826 4.20712e-19)
(43.0753 7.67199 1.04795e-19)
(43.1496 8.22927 -4.3699e-19)
(43.2138 8.79147 6.27856e-19)
(43.2031 9.32479 -7.02182e-19)
(43.2571 9.88628 3.6753e-19)
(43.4186 10.5125 -3.17191e-19)
(43.5822 11.1968 1.8841e-19)
(43.6705 11.868 -5.67849e-19)
(43.819 12.5323 4.47354e-19)
(44.0343 13.2454 -7.06303e-19)
(44.2572 13.9628 0)
(44.5061 14.6959 -7.16393e-19)
(44.8141 15.4197 -7.15874e-19)
(45.176 16.1446 1.77136e-19)
(45.5737 16.8875 1.6302e-18)
(46.0288 17.5981 -1.61285e-18)
(46.5331 18.3114 -2.70041e-19)
(47.0801 19.0148 -2.83641e-18)
(47.6752 19.6693 6.67878e-18)
(48.3701 20.3154 4.36386e-19)
(49.1784 20.9671 5.15334e-19)
(49.9748 21.712 -2.64038e-18)
(50.1249 21.9815 0)
(48.4792 21.6556 4.8278e-18)
(40.2076 18.1399 -2.57291e-18)
(16.7409 6.81392 0)
(39.6142 0.0928457 1.46868e-22)
(41.5002 0.0309433 -1.4323e-22)
(41.5366 0.398889 3.64714e-20)
(41.6021 0.472532 0)
(41.6514 0.763283 8.0745e-22)
(41.7261 0.942614 5.88158e-20)
(41.8459 1.14551 0)
(41.9434 1.37444 -1.01729e-19)
(42.0476 1.60029 5.82984e-20)
(42.1604 1.84995 -6.79139e-21)
(42.2633 2.10856 -2.02995e-19)
(42.3691 2.39551 -1.22421e-20)
(42.4707 2.6872 9.45886e-20)
(42.5831 2.98524 0)
(42.6877 3.28423 0)
(42.789 3.58647 0)
(42.8453 3.92198 3.06027e-19)
(42.9467 4.29887 -2.50532e-19)
(43.0693 4.65313 6.03181e-19)
(43.1527 5.08346 -6.35337e-20)
(43.2392 5.52569 1.48107e-19)
(43.3308 5.9852 1.94511e-19)
(43.4287 6.47129 -8.77736e-19)
(43.517 6.98435 -7.4588e-19)
(43.6068 7.51571 0)
(43.6935 8.07091 4.26434e-19)
(43.7901 8.66336 -1.09085e-18)
(43.9714 9.31938 6.53428e-19)
(44.1317 9.99919 -3.69053e-19)
(44.2224 10.6409 2.16421e-19)
(44.3085 11.2452 -2.9693e-19)
(44.5015 11.8936 1.11864e-18)
(44.7285 12.5767 -1.21931e-18)
(44.9358 13.2337 1.7045e-18)
(45.1624 13.8918 7.09234e-19)
(45.4496 14.5405 -1.67385e-18)
(45.7873 15.2108 2.10089e-18)
(46.1509 15.8805 -1.35954e-18)
(46.5742 16.5127 3.14559e-20)
(47.0482 17.1628 0)
(47.5577 17.7789 2.30382e-18)
(48.1295 18.3579 1.57459e-18)
(48.7854 18.9372 1.74447e-19)
(49.4713 19.4758 -4.50075e-18)
(50.2317 20.0421 -1.57543e-19)
(50.702 20.4437 -3.12149e-18)
(50.4528 20.5098 0)
(47.6237 19.6681 5.00496e-18)
(37.0098 15.3229 -8.40283e-18)
(11.6946 3.81981 0)
(39.6773 0.120828 0)
(41.7065 -0.00840543 0)
(41.7854 0.417728 1.80098e-20)
(41.894 0.467672 3.23167e-21)
(41.8996 0.76705 -9.12283e-20)
(41.987 0.945802 -5.98345e-20)
(42.0961 1.15415 0)
(42.2165 1.35634 1.01962e-19)
(42.3362 1.57852 -2.11374e-19)
(42.4684 1.80761 0)
(42.5825 2.06319 3.61579e-19)
(42.6999 2.31971 -6.66786e-20)
(42.8387 2.59734 2.5253e-20)
(42.9564 2.91811 -2.81553e-20)
(43.0871 3.2706 0)
(43.2479 3.65267 0)
(43.4209 4.04525 -1.21692e-19)
(43.5362 4.45747 -2.68125e-19)
(43.6402 4.92011 1.06146e-19)
(43.7793 5.36101 -4.7481e-20)
(43.8837 5.83422 1.10093e-19)
(43.9934 6.32489 -6.37265e-20)
(44.1206 6.82942 5.36207e-19)
(44.2415 7.3515 2.24959e-19)
(44.3585 7.89506 -4.17019e-19)
(44.4793 8.44787 -6.32746e-19)
(44.585 8.99342 4.04469e-19)
(44.6302 9.50844 6.51999e-19)
(44.7292 10.0324 0)
(44.9446 10.6123 0)
(45.1756 11.2552 0)
(45.3235 11.8759 -7.94162e-19)
(45.5204 12.4646 -5.669e-19)
(45.7816 13.0913 -5.71304e-19)
(46.0575 13.7093 8.70502e-19)
(46.3534 14.3369 1.05786e-18)
(46.6954 14.9349 -4.79632e-19)
(47.0898 15.5164 1.48639e-18)
(47.51 16.1072 -8.67089e-19)
(47.9716 16.6454 -1.14759e-18)
(48.4738 17.1646 -1.40547e-18)
(49.0158 17.6741 1.5671e-18)
(49.5758 18.1147 0)
(50.2224 18.5426 2.45202e-18)
(50.9795 18.9998 -1.3185e-18)
(51.1911 19.1369 1.65876e-18)
(50.4588 18.9182 0)
(46.1365 17.4307 -2.45205e-18)
(33.0719 12.2368 1.42704e-18)
(6.64069 1.11099 0)
(39.7421 0.150131 -6.37599e-20)
(41.9342 -0.00165135 0)
(42.0391 0.462865 -1.49989e-19)
(42.1206 0.447177 1.15858e-19)
(42.18 0.751871 8.94092e-20)
(42.2558 0.924951 -4.59393e-21)
(42.3422 1.13971 5.11271e-21)
(42.4614 1.37136 0)
(42.6002 1.59509 2.03482e-19)
(42.7311 1.84049 -1.70719e-19)
(42.899 2.09667 -1.58369e-19)
(43.0465 2.39212 2.07859e-19)
(43.1798 2.68916 -1.57147e-19)
(43.3472 2.97845 -4.16302e-20)
(43.5056 3.27952 2.41235e-20)
(43.6228 3.59763 0)
(43.7427 3.95945 -2.86601e-19)
(43.913 4.32712 3.41425e-19)
(44.0737 4.71734 5.78469e-20)
(44.1946 5.14558 -4.23371e-21)
(44.3343 5.59485 7.16826e-20)
(44.4775 6.06282 0)
(44.6247 6.55959 1.09073e-19)
(44.7672 7.07247 4.42523e-19)
(44.9054 7.60022 5.30604e-19)
(45.0393 8.14519 6.36452e-19)
(45.1943 8.72346 0)
(45.4235 9.35514 -4.59889e-19)
(45.647 10.0132 -9.94356e-19)
(45.7842 10.6255 5.4878e-19)
(45.8948 11.1719 -1.17873e-18)
(46.1247 11.7481 -5.77344e-19)
(46.3957 12.3643 1.02794e-18)
(46.6359 12.9398 -3.75352e-19)
(46.88 13.5043 -8.78014e-19)
(47.1867 14.0412 -4.61325e-19)
(47.5422 14.5919 -6.36246e-19)
(47.9045 15.1304 0)
(48.3153 15.6118 -1.04097e-18)
(48.7651 16.0994 2.31019e-18)
(49.2375 16.5526 1.42066e-18)
(49.7492 16.9383 -1.68165e-18)
(50.3504 17.3245 2.16586e-18)
(51.0721 17.7419 -1.10359e-18)
(51.4386 17.93 2.81832e-18)
(51.294 17.8657 3.97715e-21)
(49.5189 17.2294 0)
(43.1338 14.8715 5.00707e-18)
(27.3363 8.63687 -4.23608e-18)
(3.82424 -0.0935791 -1.53095e-18)
(39.833 0.211223 6.37388e-20)
(42.1509 0.0606752 -1.14081e-19)
(42.2453 0.471119 9.32477e-20)
(42.321 0.418436 -1.13761e-19)
(42.4161 0.70107 -9.32683e-20)
(42.5374 0.790616 -6.1224e-21)
(42.6291 1.04461 3.53871e-21)
(42.7798 1.25365 0)
(42.9177 1.48179 -1.8135e-19)
(43.089 1.71084 2.83772e-19)
(43.2344 1.95138 0)
(43.4014 2.20356 -1.94375e-20)
(43.5875 2.50025 2.43889e-21)
(43.7492 2.83625 2.15804e-19)
(43.9354 3.20717 -3.23764e-19)
(44.1794 3.57861 -2.74147e-21)
(44.3853 3.97083 4.50768e-20)
(44.5264 4.40769 0)
(44.6997 4.84514 -1.78113e-19)
(44.9107 5.32064 3.90553e-19)
(45.0752 5.8037 -4.55127e-20)
(45.237 6.30538 0)
(45.4162 6.81128 0)
(45.584 7.33843 -2.21038e-19)
(45.7422 7.87858 9.6007e-20)
(45.897 8.42239 -7.04046e-19)
(46.0358 8.95131 2.62702e-19)
(46.1195 9.44607 -1.51235e-19)
(46.2322 9.92571 4.87588e-19)
(46.4639 10.4486 2.1334e-19)
(46.7344 11.0472 6.7983e-19)
(46.915 11.6212 -7.08435e-19)
(47.1188 12.1371 4.52891e-19)
(47.3771 12.6792 -4.68414e-19)
(47.6638 13.2013 -5.49728e-19)
(47.9655 13.734 -5.91535e-19)
(48.2888 14.2228 0)
(48.6602 14.6779 1.40486e-18)
(49.0486 15.1407 -5.23809e-19)
(49.4594 15.5425 -1.25183e-18)
(49.8969 15.8967 1.4866e-18)
(50.3818 16.2562 -3.91248e-20)
(50.8907 16.5698 -1.08349e-18)
(51.3926 16.8235 -2.27967e-20)
(51.4884 16.8403 -1.4247e-18)
(50.8717 16.5823 -3.61124e-18)
(47.7789 15.4371 2.0336e-18)
(38.91 12.1982 0)
(20.4689 5.18393 -2.72816e-18)
(1.46669 -0.382104 5.25103e-18)
(40.0413 0.227946 2.23471e-22)
(42.3169 0.0836671 1.1468e-19)
(42.4076 0.39882 -4.11122e-20)
(42.4988 0.386437 -1.35983e-21)
(42.6391 0.63798 9.35198e-20)
(42.7845 0.743677 0)
(42.9171 0.949999 0)
(43.0258 1.1673 -5.80745e-21)
(43.197 1.39202 3.17191e-19)
(43.3581 1.65063 -1.16044e-19)
(43.5722 1.91344 1.00901e-20)
(43.7701 2.18538 -2.33482e-20)
(43.9507 2.47235 1.07306e-19)
(44.1738 2.75577 -1.11729e-19)
(44.3654 3.04478 4.65973e-19)
(44.5263 3.40654 -1.04926e-19)
(44.7287 3.76369 1.25252e-19)
(44.9779 4.13896 3.53044e-20)
(45.1667 4.55283 -3.76631e-19)
(45.3165 4.95344 -2.53993e-19)
(45.5154 5.41177 3.35485e-21)
(45.7057 5.89147 -6.57585e-20)
(45.9004 6.40057 0)
(46.0915 6.91671 -2.97727e-19)
(46.2708 7.44355 2.94605e-21)
(46.4396 7.98096 6.93346e-20)
(46.6263 8.54287 7.55045e-20)
(46.8791 9.14911 1.95504e-19)
(47.1461 9.79047 0)
(47.3086 10.3826 1.30472e-19)
(47.4068 10.8767 7.32822e-19)
(47.628 11.3809 6.66474e-19)
(47.9046 11.9319 -3.52508e-19)
(48.1455 12.4374 7.25098e-19)
(48.369 12.9288 -5.89607e-19)
(48.6476 13.374 -3.59065e-19)
(48.9771 13.8247 0)
(49.2959 14.2631 -9.40456e-19)
(49.6456 14.6292 -5.91322e-19)
(50.0223 14.9853 6.60498e-19)
(50.4183 15.3305 -7.85913e-19)
(50.8318 15.5963 9.17607e-19)
(51.4017 15.9027 0)
(51.6104 15.988 6.11419e-19)
(51.4113 15.9194 0)
(49.7787 15.3449 8.97724e-19)
(44.5708 13.6653 -2.02922e-18)
(32.3336 9.5886 1.1463e-18)
(10.1338 2.0217 0)
(-0.46775 -0.123153 3.38516e-19)
(40.2048 0.0585664 3.50249e-23)
(42.4184 -0.0297873 4.16916e-23)
(42.6061 0.244375 4.22589e-20)
(42.6877 0.330002 2.21423e-22)
(42.8362 0.547983 1.93793e-21)
(42.9961 0.647704 3.10132e-22)
(43.1813 0.806283 -3.45211e-22)
(43.3507 0.985563 8.76572e-22)
(43.513 1.18182 -1.19085e-19)
(43.7192 1.39501 -2.60544e-21)
(43.906 1.63978 -1.50266e-21)
(44.1252 1.91165 3.47801e-21)
(44.346 2.18912 1.20447e-19)
(44.5557 2.52711 -1.4673e-19)
(44.8299 2.89694 -1.85179e-19)
(45.1281 3.23551 1.04755e-19)
(45.3773 3.64383 -1.21221e-19)
(45.5697 4.07598 -5.45489e-21)
(45.8272 4.52659 -6.47808e-21)
(46.098 5.01767 0)
(46.3197 5.50243 -9.06683e-21)
(46.5382 6.01685 -5.11044e-21)
(46.7561 6.53227 5.71361e-21)
(46.9635 7.06868 0)
(47.1532 7.61491 0)
(47.3283 8.16104 2.73464e-19)
(47.4908 8.68703 0)
(47.5947 9.17284 -1.95759e-19)
(47.6893 9.61759 0)
(47.8959 10.0885 9.43068e-21)
(48.1758 10.6486 -3.3896e-19)
(48.3665 11.193 2.40094e-20)
(48.5439 11.6583 -4.69191e-19)
(48.7531 12.1326 4.17788e-20)
(49.0119 12.5739 2.64537e-19)
(49.2911 13.0356 4.05239e-19)
(49.5595 13.4492 -1.40113e-20)
(49.8667 13.8087 0)
(50.1869 14.1787 -9.56618e-21)
(50.5162 14.5031 1.1163e-20)
(50.8536 14.7493 0)
(51.3418 15.0789 -1.42623e-20)
(51.5506 15.2233 -6.73187e-20)
(51.4723 15.2418 -5.70641e-19)
(50.5954 14.9621 -1.17096e-20)
(47.4912 14.0268 0)
(39.5667 11.5218 0)
(23.6121 6.37136 1.56627e-19)
(4.45007 0.707384 -1.5492e-19)
(-1.32434 0.0512317 3.48523e-19)
(40.1143 -0.235586 9.12132e-20)
(42.5443 -0.268523 1.01939e-19)
(42.8846 0.07748 5.78551e-20)
(42.9362 0.202406 6.92138e-20)
(43.0134 0.456495 7.49506e-20)
(43.1641 0.56536 -9.1449e-20)
(43.3805 0.725227 0)
(43.5773 0.894072 0)
(43.769 1.08009 7.96583e-20)
(43.9647 1.27308 2.60511e-21)
(44.1957 1.51049 -1.0698e-19)
(44.435 1.7466 -7.7464e-21)
(44.7137 2.03423 -1.53534e-19)
(44.9808 2.28642 1.84983e-19)
(45.2008 2.57931 2.41159e-19)
(45.429 2.94657 0)
(45.7215 3.29455 0)
(46.0375 3.67807 5.45413e-21)
(46.2584 4.08262 6.47716e-21)
(46.4607 4.49782 -2.80378e-19)
(46.7287 4.97678 9.07351e-21)
(46.9509 5.46461 0)
(47.1969 5.98249 0)
(47.4299 6.51404 -6.46154e-20)
(47.6414 7.05516 -3.16838e-19)
(47.837 7.59844 9.46836e-20)
(48.0337 8.15645 0)
(48.2824 8.75266 -2.47301e-19)
(48.5688 9.3941 0)
(48.7418 9.99038 -9.42759e-21)
(48.8008 10.4598 0)
(48.9698 10.907 0)
(49.21 11.4012 1.27451e-19)
(49.4297 11.8562 1.48781e-19)
(49.6131 12.3054 0)
(49.8278 12.6897 0)
(50.0992 13.0658 1.40036e-20)
(50.3527 13.4434 0)
(50.6204 13.7467 9.55991e-21)
(50.8999 14.0104 -3.77634e-19)
(51.2746 14.3522 4.13362e-19)
(51.5286 14.5682 2.99946e-20)
(51.5587 14.6109 1.82081e-20)
(51.1674 14.5549 -6.39162e-19)
(49.27 14.0656 -3.71596e-19)
(43.9174 12.4885 2.12184e-18)
(32.1294 8.95621 -9.56825e-19)
(11.9106 2.7464 -1.09877e-18)
(0.689559 0.262433 9.04404e-19)
(-1.87367 0.004726 0)
(39.5382 -0.626756 -9.1149e-20)
(42.8116 -0.448367 1.24046e-19)
(43.189 -0.101035 -5.67929e-20)
(43.1812 0.00241818 8.24795e-20)
(43.207 0.293726 -7.95162e-20)
(43.3383 0.391961 9.40956e-20)
(43.5309 0.554878 7.62809e-21)
(43.7714 0.666926 -8.49314e-21)
(44.0176 0.809134 -6.86718e-20)
(44.2927 1.00616 -1.21828e-20)
(44.52 1.17757 1.13849e-19)
(44.764 1.40972 3.03373e-19)
(45.015 1.64408 -2.00291e-19)
(45.3181 1.98305 -1.6901e-19)
(45.6708 2.30181 -7.87911e-19)
(46.0208 2.62882 3.84766e-20)
(46.3094 3.02609 -4.29478e-20)
(46.5834 3.45957 4.45707e-19)
(46.9264 3.92495 6.47238e-20)
(47.2536 4.42287 2.07746e-19)
(47.5305 4.92176 0)
(47.8093 5.44742 0)
(48.105 5.99211 0)
(48.3438 6.55477 0)
(48.5584 7.1228 3.13044e-19)
(48.7449 7.69459 -8.12582e-19)
(48.918 8.24948 0)
(49.0323 8.75789 7.91562e-19)
(49.089 9.19803 0)
(49.2256 9.63278 0)
(49.477 10.1636 -8.33174e-19)
(49.6588 10.7002 4.70409e-19)
(49.7902 11.1467 -1.06976e-18)
(49.9158 11.5808 3.0866e-19)
(50.1138 11.9625 0)
(50.3554 12.3753 0)
(50.557 12.7509 4.87017e-19)
(50.784 13.0522 -1.66887e-18)
(51.0227 13.357 0)
(51.3114 13.6905 -1.10957e-18)
(51.5935 13.9492 1.57168e-18)
(51.6673 14.0257 -1.84024e-18)
(51.4666 14.086 1.10876e-18)
(50.1932 13.8725 -1.30831e-18)
(46.3857 12.8107 3.31198e-18)
(37.5928 10.3188 -2.91136e-18)
(21.5183 5.58006 1.87935e-18)
(4.34214 1.03375 -4.18153e-18)
(-1.54014 0.291583 4.97183e-18)
(-1.96586 0.0819967 -3.20647e-18)
(38.6372 -0.796365 -2.19593e-19)
(43.2183 -0.467456 1.92167e-20)
(43.3927 -0.2573 0)
(43.4143 -0.216639 -1.50548e-19)
(43.4356 0.0666226 -3.88446e-19)
(43.5165 0.210131 1.31118e-20)
(43.6387 0.390276 0)
(43.8469 0.501246 0)
(44.143 0.633913 -2.37644e-20)
(44.3951 0.76744 2.64731e-20)
(44.696 0.981094 -5.45986e-19)
(44.9982 1.1498 3.55433e-19)
(45.3305 1.36403 3.63157e-19)
(45.638 1.57746 -4.75453e-19)
(45.9307 1.88651 5.22468e-19)
(46.2454 2.22058 8.51472e-20)
(46.6258 2.54315 -9.15296e-19)
(47.0022 2.91306 -1.42389e-18)
(47.2947 3.33127 0)
(47.5895 3.76299 6.91912e-19)
(47.913 4.25262 8.18293e-19)
(48.2008 4.76676 0)
(48.4696 5.31662 -1.12989e-18)
(48.7469 5.88043 0)
(48.9969 6.45495 0)
(49.2164 7.03427 8.09619e-19)
(49.4137 7.61841 5.31656e-19)
(49.6364 8.22706 1.2058e-18)
(49.9121 8.89312 0)
(50.0918 9.53422 0)
(50.1011 10.0268 3.93221e-19)
(50.1782 10.4472 4.88175e-19)
(50.3355 10.8981 1.74082e-18)
(50.5143 11.3119 1.72757e-20)
(50.6558 11.7415 2.06829e-20)
(50.7892 12.096 -1.71835e-18)
(50.9852 12.4164 -2.88308e-20)
(51.173 12.757 2.2381e-18)
(51.395 13.0655 1.32309e-18)
(51.6624 13.3428 7.27162e-19)
(51.7555 13.5043 1.70722e-18)
(51.635 13.6343 5.01844e-20)
(50.7702 13.5487 -2.22244e-18)
(48.1089 12.8767 -1.28744e-18)
(41.505 11.1279 -3.65262e-18)
(28.5534 7.50398 4.10449e-18)
(9.00629 2.15966 -1.83044e-18)
(0.158813 0.562934 0)
(-2.49854 0.277465 0)
(-1.81397 0.178342 6.29038e-19)
(37.931 -0.618551 6.79418e-19)
(43.5772 -0.359328 2.75946e-19)
(43.4222 -0.371581 -2.92474e-19)
(43.5854 -0.356719 1.06784e-20)
(43.6005 -0.189083 7.71975e-19)
(43.7271 -0.143998 -1.39355e-20)
(43.7742 0.0631839 0)
(44.0128 0.165624 -6.62845e-19)
(44.2592 0.266896 -2.52159e-20)
(44.5516 0.43155 -2.29716e-21)
(44.8701 0.523015 1.15475e-18)
(45.2216 0.727522 -6.12788e-19)
(45.5324 0.948692 3.94997e-21)
(45.9159 1.19535 4.14925e-19)
(46.3312 1.44954 0)
(46.7456 1.76358 0)
(47.1162 2.15327 7.07566e-19)
(47.476 2.56083 1.09964e-18)
(47.9033 3.02137 0)
(48.3069 3.52963 -6.89719e-19)
(48.6734 4.04739 -8.15543e-19)
(49.0291 4.60617 -2.5812e-19)
(49.4027 5.18399 1.81242e-19)
(49.7124 5.78979 1.08883e-18)
(49.9604 6.41567 3.93436e-19)
(50.1636 7.05283 4.72748e-19)
(50.3404 7.67248 -1.55644e-18)
(50.4663 8.25444 -1.18284e-18)
(50.4861 8.74869 1.47314e-18)
(50.5129 9.18159 -1.67845e-18)
(50.6892 9.69437 0)
(50.838 10.2421 0)
(50.9115 10.6977 4.54521e-20)
(50.9328 11.1251 -1.34619e-18)
(51.0327 11.4638 1.58147e-18)
(51.2196 11.8266 2.69697e-18)
(51.3609 12.1817 -1.001e-18)
(51.5368 12.4641 -2.348e-18)
(51.7482 12.7373 -2.61735e-18)
(51.9069 13.0317 -1.51553e-18)
(51.8666 13.1856 -4.01757e-20)
(51.2737 13.1691 1.95249e-18)
(49.3759 12.7788 0)
(44.2036 11.5536 1.27418e-18)
(33.4035 8.65194 1.4416e-18)
(14.9878 3.72576 1.60464e-18)
(2.4876 0.983101 5.38703e-18)
(-1.88666 0.5423 -2.00772e-18)
(-2.76615 0.378363 0)
(-1.57571 0.243965 0)
(37.4964 -0.343383 4.38678e-21)
(43.6839 -0.205144 -5.19999e-19)
(43.3268 -0.442852 3.00268e-19)
(43.678 -0.468681 -6.96672e-19)
(43.6199 -0.396373 -4.19761e-19)
(43.8058 -0.41152 -9.20875e-22)
(43.8509 -0.204942 1.71141e-20)
(44.0761 -0.130405 6.17925e-19)
(44.2943 -0.00765735 4.89026e-20)
(44.5737 0.0657562 6.3445e-20)
(44.9271 0.239509 -5.68448e-19)
(45.2878 0.345951 -8.55347e-20)
(45.7066 0.516361 -8.76689e-19)
(46.068 0.722548 -1.06288e-18)
(46.4545 0.965505 1.6377e-19)
(46.8638 1.23564 -1.82677e-19)
(47.3302 1.52741 0)
(47.7994 1.89186 -1.12502e-18)
(48.1794 2.28545 0)
(48.5862 2.72669 0)
(48.9952 3.23531 0)
(49.3805 3.78867 -5.59634e-19)
(49.6967 4.38053 1.85307e-18)
(50.0327 4.99773 -1.43444e-18)
(50.333 5.64342 0)
(50.592 6.29201 -5.12155e-19)
(50.819 6.94692 -1.85064e-18)
(51.009 7.61278 -2.78045e-18)
(51.2435 8.32931 -2.23055e-18)
(51.4344 9.06179 1.59783e-18)
(51.3967 9.65088 -1.95839e-18)
(51.3513 10.0968 1.10105e-18)
(51.3701 10.5302 2.57136e-18)
(51.4635 10.9007 0)
(51.557 11.3074 1.69293e-18)
(51.6 11.6443 -3.61463e-18)
(51.7181 11.9099 -4.42932e-20)
(51.87 12.2026 2.29203e-18)
(52.0526 12.5494 1.2342e-18)
(52.0855 12.691 0)
(51.6536 12.7474 1.73952e-18)
(50.1921 12.5595 -1.98423e-18)
(46.0738 11.7285 4.48506e-18)
(36.9416 9.36214 0)
(20.5172 5.10595 -5.65301e-18)
(5.19727 1.56613 1.56582e-18)
(-0.914602 0.842893 -1.76536e-18)
(-2.73413 0.638192 -1.9694e-18)
(-2.71676 0.523064 4.38719e-18)
(-1.33868 0.272966 1.42393e-21)
(37.3637 -0.12688 -4.64836e-19)
(43.6375 -0.0261905 5.20823e-19)
(43.0417 -0.467465 -5.80499e-19)
(43.6444 -0.616281 1.38885e-18)
(43.5206 -0.583845 -8.25481e-19)
(43.8616 -0.740998 6.02749e-20)
(43.9 -0.584291 -6.01773e-19)
(44.1843 -0.574289 0)
(44.3384 -0.41418 -8.25096e-19)
(44.6895 -0.339387 1.06846e-18)
(44.99 -0.300832 6.20391e-21)
(45.3502 -0.109101 -8.77696e-20)
(45.7712 0.0453744 8.73755e-19)
(46.2394 0.200638 -3.29067e-20)
(46.7223 0.421475 1.15712e-18)
(47.2176 0.68901 1.90662e-19)
(47.6689 1.03478 0)
(48.1521 1.39686 1.11999e-18)
(48.6966 1.84234 2.83767e-18)
(49.1878 2.33853 0)
(49.6677 2.87246 0)