/*--------------------------------*- C++ -*----------------------------------*\
| =========                 |                                                 |
| \\      /  F ield         | OpenFOAM: The Open Source CFD Toolbox           |
|  \\    /   O peration     | Version:  v1912                                 |
|   \\  /    A nd           | Website:  www.openfoam.com                      |
|    \\/     M anipulation  |                                                 |
\*---------------------------------------------------------------------------*/
FoamFile
{
    version     2.0;
    format      ascii;
    class       surfaceScalarField;
    location    "0.48";
    object      phi;
}
// * * * * * * * * * * * * * * * * * * * * * * * * * * * * * * * * * * * * * //

dimensions      [0 3 -1 0 0 0 0];
oriented        oriented;


internalField   nonuniform List<scalar> 
13060
(
0.00599085
0.98818
-0.994171
0.0077446
0.945393
-0.947147
0.00870429
0.899642
-0.900602
0.00933371
0.856221
-0.85685
0.00967242
0.816145
-0.816483
0.00987555
0.778398
-0.778601
0.00998706
0.742268
-0.742379
0.0101034
0.707885
-0.708001
0.0104936
0.674774
-0.675164
0.0111119
0.643047
-0.643666
0.0118475
0.612805
-0.613541
0.0127308
0.583715
-0.584598
0.0137346
0.555902
-0.556906
0.0147851
0.529342
-0.530393
0.0158526
0.504032
-0.5051
0.0168023
0.47993
-0.48088
0.0175257
0.456912
-0.457635
0.0179171
0.43506
-0.435452
0.0180516
0.414104
-0.414238
0.0183303
0.393999
-0.394278
0.0186896
0.375045
-0.375404
0.0189564
0.357199
-0.357466
0.0190558
0.340322
-0.340422
0.0189952
0.324267
-0.324206
0.0188036
0.309068
-0.308877
0.0185302
0.294693
-0.29442
0.0182192
0.281099
-0.280788
0.017717
0.268277
-0.267775
0.0169247
0.256186
-0.255394
0.0159498
0.244889
-0.243914
0.0149237
0.234234
-0.233208
0.0139147
0.223886
-0.222877
0.0129755
0.21426
-0.21332
0.0119781
0.205178
-0.204181
0.0109481
0.19645
-0.19542
0.00984991
0.188238
-0.18714
0.00866893
0.180575
-0.179395
0.00744586
0.17339
-0.172167
0.00637961
0.166501
-0.165435
0.0055436
0.160066
-0.15923
0.00466617
0.154005
-0.153128
0.00367815
0.148162
-0.147174
0.00267008
0.142549
-0.14154
0.0016529
0.137413
-0.136396
0.000670634
0.132389
-0.131407
-0.000187526
0.127745
-0.126887
-0.00115285
0.12277
-0.121805
-0.00202679
0.119131
-0.118257
-0.0019475
0.110152
-0.110232
0.0786095
-0.080557
0.00611358
0.982066
0.00739531
0.944111
0.00782392
0.899213
0.00743295
0.856612
0.0069947
0.816583
0.00699305
0.7784
0.00721309
0.742048
0.00765533
0.707442
0.00821772
0.674212
0.00887466
0.642391
0.00961221
0.612067
0.0102944
0.583033
0.0109541
0.555242
0.0115242
0.528772
0.0120875
0.503469
0.0126604
0.479357
0.0132823
0.45629
0.0140885
0.434254
0.014715
0.413477
0.0150389
0.393675
0.0151131
0.374971
0.0149671
0.357345
0.0147179
0.340571
0.0143845
0.3246
0.013961
0.309492
0.0133616
0.295292
0.012634
0.281826
0.0119221
0.268989
0.0113071
0.256801
0.0107512
0.245445
0.0101491
0.234836
0.00939756
0.224638
0.00858376
0.215073
0.00768747
0.206075
0.00675927
0.197378
0.005861
0.189136
0.00496965
0.181467
0.00414678
0.174213
0.00320551
0.167443
0.00214259
0.161128
0.0011436
0.155004
0.000250814
0.149055
-0.000597576
0.143397
-0.00131543
0.138131
-0.00195102
0.133025
-0.00247231
0.128267
-0.00299641
0.123294
-0.00310781
0.119243
-0.00243048
0.109475
0.0761791
0.00561271
0.976454
0.00614191
0.943582
0.00602783
0.899327
0.00549537
0.857144
0.00511606
0.816962
0.00498724
0.778528
0.00500432
0.742031
0.00530157
0.707145
0.00571454
0.673799
0.00616934
0.641936
0.00679079
0.611446
0.00750775
0.582316
0.00830538
0.554445
0.00912705
0.527951
0.0098986
0.502697
0.0104925
0.478763
0.0106842
0.456098
0.0105759
0.434362
0.0105059
0.413547
0.0105626
0.393618
0.0107053
0.374828
0.0107397
0.357311
0.0105093
0.340802
0.0101078
0.325002
0.00968801
0.309912
0.00931772
0.295663
0.00886458
0.282279
0.00816025
0.269693
0.00720659
0.257755
0.00613649
0.246515
0.00509966
0.235873
0.00412892
0.225608
0.00324658
0.215956
0.00240865
0.206913
0.00155676
0.19823
0.000652952
0.19004
-0.000246163
0.182366
-0.00118583
0.175153
-0.00188599
0.168143
-0.00236217
0.161605
-0.00284145
0.155483
-0.00333806
0.149552
-0.00380695
0.143866
-0.00423201
0.138556
-0.00456167
0.133355
-0.00475771
0.128463
-0.00485766
0.123394
-0.0042663
0.118651
-0.00295591
0.108165
0.0732231
0.00467548
0.971778
0.00450515
0.943752
0.00415402
0.899678
0.00341794
0.85788
0.00305196
0.817328
0.00299047
0.77859
0.00310601
0.741915
0.00336279
0.706888
0.00373551
0.673426
0.00418201
0.641489
0.00468312
0.610945
0.00515262
0.581846
0.00553439
0.554063
0.00586901
0.527616
0.00618768
0.502379
0.00658752
0.478363
0.00712728
0.455558
0.00754358
0.433946
0.00765402
0.413437
0.00735035
0.393922
0.00695683
0.375221
0.00664757
0.35762
0.00624388
0.341205
0.0057182
0.325528
0.00495073
0.310679
0.00400334
0.29661
0.00309259
0.28319
0.00238316
0.270403
0.00182692
0.258311
0.00127841
0.247064
0.000674122
0.236477
-1.51732e-05
0.226298
-0.000819525
0.21676
-0.00167408
0.207767
-0.00248378
0.19904
-0.00319847
0.190755
-0.00385744
0.183025
-0.00442429
0.17572
-0.0050914
0.16881
-0.00580831
0.162322
-0.00638593
0.156061
-0.00680454
0.14997
-0.00701758
0.144079
-0.00700889
0.138548
-0.006873
0.133219
-0.00659431
0.128184
-0.00624274
0.123043
-0.00530832
0.117717
-0.00354465
0.106401
0.0696785
0.00387601
0.967902
0.00315635
0.944472
0.00239683
0.900438
0.00170995
0.858567
0.00148278
0.817555
0.00113824
0.778934
0.00104292
0.742011
0.00117804
0.706753
0.00139166
0.673212
0.00164714
0.641234
0.00203021
0.610562
0.00257496
0.581302
0.00314833
0.55349
0.0037205
0.527044
0.00414135
0.501958
0.0041863
0.478318
0.00389425
0.45585
0.0035594
0.434281
0.00340427
0.413592
0.00320795
0.394118
0.00286638
0.375563
0.00244283
0.358043
0.0019426
0.341706
0.00143055
0.32604
0.00100359
0.311106
0.000547306
0.297066
-0.000140935
0.283878
-0.00111632
0.271378
-0.00222782
0.259423
-0.00337587
0.248212
-0.00443744
0.237539
-0.00540591
0.227266
-0.00622592
0.21758
-0.00693814
0.208479
-0.00765598
0.199758
-0.00837672
0.191476
-0.00903001
0.183678
-0.00956458
0.176254
-0.00986423
0.16911
-0.00994498
0.162402
-0.00994753
0.156063
-0.00988293
0.149906
-0.00978275
0.143979
-0.00957868
0.138344
-0.00918051
0.132821
-0.00853987
0.127543
-0.00783217
0.122335
-0.00650826
0.116393
-0.00417331
0.104066
0.0655052
0.0029854
0.964917
0.00189298
0.945564
0.000842858
0.901488
0.000203215
0.859207
-0.000269548
0.818028
-0.000444701
0.77911
-0.000486192
0.742052
-0.000383905
0.706651
-0.000143604
0.672972
0.000103765
0.640986
0.00026374
0.610402
0.000357904
0.581207
0.000336346
0.553511
0.000299798
0.52708
0.000365321
0.501892
0.000644119
0.47804
0.000902174
0.455592
0.000789133
0.434394
0.000331233
0.41405
-0.000213015
0.394663
-0.000804652
0.376155
-0.00142229
0.358661
-0.00208171
0.342365
-0.00301181
0.32697
-0.00410895
0.312203
-0.00519172
0.298149
-0.00610283
0.28479
-0.00680262
0.272078
-0.00743088
0.260051
-0.00799232
0.248773
-0.00857246
0.238119
-0.00919418
0.227888
-0.00988551
0.218271
-0.0106024
0.209196
-0.0112267
0.200382
-0.0116981
0.191947
-0.0120607
0.184041
-0.0123424
0.176536
-0.0126491
0.169416
-0.0129316
0.162685
-0.0130344
0.156166
-0.0129249
0.149796
-0.0125562
0.14361
-0.0119545
0.137742
-0.0112064
0.132072
-0.0103159
0.126653
-0.00933571
0.121355
-0.00769979
0.114757
-0.00481868
0.101185
0.0606865
0.0027041
0.962213
0.00132957
0.946939
-2.64493e-05
0.902844
-0.000624485
0.859805
-0.0012389
0.818643
-0.00163888
0.77951
-0.00180991
0.742223
-0.00185165
0.706693
-0.00185108
0.672971
-0.00175404
0.640889
-0.00158218
0.61023
-0.00137212
0.580997
-0.00120848
0.553347
-0.00118826
0.52706
-0.00149803
0.502202
-0.0020977
0.478639
-0.00261799
0.456112
-0.00300967
0.434786
-0.00347209
0.414512
-0.00405067
0.395241
-0.00481037
0.376914
-0.0055918
0.359443
-0.00624366
0.343017
-0.00679116
0.327517
-0.00731392
0.312726
-0.00795343
0.298789
-0.00882418
0.28566
-0.00991049
0.273164
-0.0110978
0.261238
-0.0122185
0.249894
-0.0132456
0.239146
-0.0141778
0.22882
-0.0148918
0.218985
-0.0154106
0.209715
-0.0158738
0.200845
-0.016308
0.192381
-0.0166365
0.184369
-0.0168304
0.17673
-0.0167753
0.169361
-0.0164645
0.162374
-0.0160145
0.155716
-0.0154764
0.149258
-0.0149101
0.143044
-0.0142353
0.137067
-0.0133724
0.131209
-0.0122706
0.125551
-0.0109541
0.120038
-0.0089125
0.112716
-0.00540778
0.0976803
0.0552787
0.00222888
0.959984
0.000569007
0.948599
-0.000823125
0.904236
-0.00154823
0.86053
-0.00202949
0.819124
-0.00235698
0.779837
-0.00250352
0.74237
-0.00252742
0.706717
-0.00255634
0.673
-0.00267622
0.641009
-0.00289065
0.610444
-0.00325183
0.581359
-0.00358881
0.553684
-0.00391943
0.527391
-0.00411192
0.502395
-0.00434269
0.47887
-0.00482196
0.456592
-0.00547503
0.435439
-0.0062251
0.415262
-0.00695832
0.395974
-0.00776935
0.377725
-0.00870837
0.360382
-0.00981421
0.344123
-0.0110671
0.32877
-0.0123334
0.313992
-0.0134428
0.299898
-0.0143174
0.286535
-0.0150149
0.273862
-0.0156127
0.261836
-0.0161686
0.25045
-0.0166771
0.239654
-0.0171485
0.229291
-0.0176809
0.219518
-0.0182341
0.210268
-0.0186634
0.201274
-0.01892
0.192638
-0.0190383
0.184488
-0.0190251
0.176717
-0.0189894
0.169326
-0.0189046
0.162289
-0.0186371
0.155449
-0.0181291
0.14875
-0.0173325
0.142247
-0.0163356
0.13607
-0.0152566
0.130131
-0.0141149
0.124409
-0.0125464
0.11847
-0.0101675
0.110337
-0.00602562
0.0935384
0.0492531
0.00224896
0.957735
0.000634757
0.950213
-0.000815577
0.905687
-0.00178568
0.8615
-0.00253547
0.819874
-0.00288967
0.780191
-0.00317312
0.742653
-0.00347995
0.707023
-0.00374072
0.673261
-0.00383816
0.641107
-0.00394599
0.610552
-0.00416664
0.581579
-0.0044711
0.553989
-0.00504627
0.527966
-0.0058662
0.503214
-0.00664744
0.479651
-0.00739008
0.457334
-0.00815873
0.436207
-0.00910137
0.416205
-0.0101204
0.396994
-0.0111353
0.37874
-0.0120339
0.36128
-0.0127509
0.34484
-0.0134351
0.329454
-0.0141727
0.31473
-0.015014
0.300739
-0.0160362
0.287557
-0.0171701
0.274996
-0.0183363
0.263002
-0.0194453
0.251559
-0.020473
0.240682
-0.0213874
0.230206
-0.0220252
0.220156
-0.0223747
0.210618
-0.0226214
0.201521
-0.0228186
0.192835
-0.0228831
0.184552
-0.0228058
0.176639
-0.0224792
0.168999
-0.0218795
0.16169
-0.0211135
0.154683
-0.0202792
0.147916
-0.0194441
0.141412
-0.0184884
0.135115
-0.0173415
0.128984
-0.0160631
0.123131
-0.014124
0.116531
-0.0113635
0.107576
-0.00660479
0.0887797
0.0426483
0.00211074
0.955624
0.00047348
0.95185
-0.000838871
0.906999
-0.00177117
0.862432
-0.00250074
0.820603
-0.00298317
0.780674
-0.00334205
0.743012
-0.00367495
0.707356
-0.00411124
0.673697
-0.00462279
0.641618
-0.00519361
0.611123
-0.00579973
0.582185
-0.00638032
0.554569
-0.00681826
0.528404
-0.00735033
0.503747
-0.00804619
0.480347
-0.0088733
0.458161
-0.00974064
0.437075
-0.0106488
0.417113
-0.0116637
0.398008
-0.0128134
0.37989
-0.0141816
0.362648
-0.0156277
0.346286
-0.0170802
0.330907
-0.0184807
0.31613
-0.019682
0.301941
-0.0206289
0.288504
-0.0213868
0.275753
-0.0220142
0.26363
-0.022535
0.25208
-0.0229446
0.241092
-0.0232983
0.23056
-0.0237331
0.22059
-0.0242172
0.211102
-0.0245479
0.201852
-0.024682
0.192969
-0.024656
0.184526
-0.0244602
0.176444
-0.0242034
0.168742
-0.0238937
0.16138
-0.0234201
0.154209
-0.0226959
0.147192
-0.0216834
0.140399
-0.0205068
0.133938
-0.0192553
0.127732
-0.0179126
0.121788
-0.0159267
0.114545
-0.0127894
0.104439
-0.00721348
0.0832038
0.0354349
0.00260081
0.953023
0.00101318
0.953438
-0.000333023
0.908345
-0.00135753
0.863457
-0.00216706
0.821413
-0.00283197
0.781339
-0.00348811
0.743668
-0.00409431
0.707962
-0.00454534
0.674148
-0.00493742
0.64201
-0.00540305
0.611589
-0.0060157
0.582798
-0.00684761
0.555401
-0.00780757
0.529364
-0.00874935
0.504688
-0.0096486
0.481246
-0.0105983
0.459111
-0.0116971
0.438173
-0.0128614
0.418277
-0.0140539
0.399201
-0.0151176
0.380954
-0.0160933
0.363624
-0.0169584
0.347151
-0.0178068
0.331755
-0.0187578
0.317081
-0.0198343
0.303017
-0.0210258
0.289696
-0.0222733
0.277001
-0.0235168
0.264873
-0.0247298
0.253293
-0.0258446
0.242207
-0.0267719
0.231487
-0.0273568
0.221175
-0.0276336
0.211379
-0.0278221
0.20204
-0.0279113
0.193058
-0.0278373
0.184452
-0.0276335
0.17624
-0.0272049
0.168314
-0.0265078
0.160683
-0.025634
0.153335
-0.0247084
0.146266
-0.0237891
0.13948
-0.0227551
0.132904
-0.0215629
0.12654
-0.0199687
0.120194
-0.0177699
0.112346
-0.014212
0.100881
-0.00787329
0.076865
0.0275616
0.00274628
0.950277
0.00120244
0.954982
-9.1433e-05
0.909639
-0.00102797
0.864393
-0.00169658
0.822081
-0.00235927
0.782001
-0.00302252
0.744331
-0.00371853
0.708659
-0.00448751
0.674917
-0.00528464
0.642807
-0.00600993
0.612314
-0.00670801
0.583496
-0.00737115
0.556065
-0.00812756
0.53012
-0.00904247
0.505603
-0.010027
0.482231
-0.0109916
0.460076
-0.0119426
0.439125
-0.0130209
0.419356
-0.0142936
0.400474
-0.0157667
0.382427
-0.0174209
0.365278
-0.0191031
0.348833
-0.0206882
0.33334
-0.0221864
0.318579
-0.0234853
0.304316
-0.0245444
0.290755
-0.0254306
0.277887
-0.0261617
0.265604
-0.0267414
0.253872
-0.0271878
0.242653
-0.0276193
0.231918
-0.0281398
0.221696
-0.0286552
0.211894
-0.0289753
0.20236
-0.0291248
0.193208
-0.029138
0.184465
-0.0289657
0.176067
-0.0286866
0.168034
-0.028337
0.160333
-0.0278435
0.152842
-0.0270972
0.14552
-0.0260623
0.138445
-0.0248816
0.131723
-0.0237968
0.125455
-0.0220918
0.118489
-0.0197395
0.109994
-0.0155831
0.0967246
-0.00853695
0.0698188
0.0190246
0.00293056
0.947346
0.00165928
0.956253
0.000564509
0.910734
-0.000359366
0.865317
-0.00118127
0.822903
-0.00195689
0.782777
-0.00271822
0.745093
-0.00337896
0.709319
-0.00393546
0.675474
-0.00456923
0.643441
-0.00533226
0.613077
-0.00619227
0.584356
-0.00719368
0.557066
-0.00817876
0.531105
-0.00917925
0.506604
-0.0103372
0.483389
-0.0116265
0.461365
-0.012932
0.44043
-0.014206
0.42063
-0.015424
0.401692
-0.0165468
0.383549
-0.0176036
0.366335
-0.0186991
0.349929
-0.0198006
0.334442
-0.0209981
0.319777
-0.0223365
0.305654
-0.0237483
0.292167
-0.0251933
0.279332
-0.0266527
0.267064
-0.0280771
0.255297
-0.0293705
0.243946
-0.0304034
0.232951
-0.0310778
0.22237
-0.0314923
0.212309
-0.0318142
0.202682
-0.0319692
0.193363
-0.031939
0.184435
-0.0317952
0.175924
-0.0314729
0.167712
-0.0308962
0.159757
-0.0301228
0.152068
-0.0293006
0.144697
-0.0284862
0.137631
-0.0275746
0.130812
-0.0263881
0.124269
-0.0244679
0.116569
-0.0216249
0.107151
-0.0164114
0.0915112
-0.00778058
0.061188
0.011244
0.00267375
0.944673
0.00157744
0.957349
0.000614337
0.911697
-0.000232614
0.866164
-0.000902084
0.823573
-0.00158708
0.783462
-0.00222616
0.745732
-0.00296823
0.710061
-0.003682
0.676188
-0.00430464
0.644064
-0.00493171
0.613704
-0.00555355
0.584978
-0.0063297
0.557842
-0.00726777
0.532043
-0.00822133
0.507557
-0.00919841
0.484366
-0.0102265
0.462393
-0.0114198
0.441624
-0.0127693
0.421979
-0.0143971
0.403319
-0.016235
0.385387
-0.0181173
0.368217
-0.0199861
0.351797
-0.0217661
0.336222
-0.02343
0.321441
-0.0249051
0.30713
-0.0261735
0.293435
-0.0272716
0.28043
-0.0281775
0.267969
-0.0289545
0.256074
-0.0296669
0.244659
-0.0304004
0.233685
-0.0311895
0.223159
-0.031892
0.213011
-0.0323906
0.203181
-0.0327765
0.193749
-0.0330497
0.184708
-0.0331173
0.175991
-0.0330115
0.167606
-0.0328108
0.159556
-0.0324913
0.151749
-0.0319169
0.144123
-0.0310605
0.136775
-0.0302652
0.130016
-0.0289576
0.122961
-0.0270383
0.114649
-0.0234519
0.103564
-0.0167388
0.084798
-0.00593568
0.0503849
0.00530835
0.00291811
0.941755
0.00187832
0.958389
0.00109317
0.912482
0.000259494
0.866998
-0.000447978
0.82428
-0.00112772
0.784142
-0.00164229
0.746246
-0.0020902
0.710509
-0.00260066
0.676698
-0.00319789
0.644661
-0.00385481
0.614361
-0.00455831
0.585681
-0.00526296
0.558547
-0.00615354
0.532934
-0.00725651
0.50866
-0.00853768
0.485647
-0.00990353
0.463759
-0.0112527
0.442973
-0.0125515
0.423278
-0.0137864
0.404554
-0.015057
0.386658
-0.0163971
0.369558
-0.0178185
0.353219
-0.0192695
0.337673
-0.0208496
0.323021
-0.0225981
0.308878
-0.024394
0.295231
-0.0262082
0.282244
-0.0280639
0.269825
-0.0298272
0.257837
-0.0313778
0.246209
-0.0326618
0.234969
-0.0336405
0.224138
-0.0344147
0.213785
-0.0350738
0.20384
-0.0355184
0.194193
-0.0357661
0.184956
-0.0359114
0.176136
-0.0359277
0.167623
-0.0356867
0.159315
-0.0351973
0.151259
-0.0346445
0.14357
-0.0341312
0.136261
-0.0334557
0.129341
-0.0319176
0.121423
-0.0295266
0.112258
-0.0250936
0.0991313
-0.0165902
0.0762946
-0.00406742
0.0378621
0.00124094
0.00297746
0.938777
0.00187245
0.959494
0.00100834
0.913346
0.000135448
0.867871
-0.000399186
0.824815
-0.000886361
0.784629
-0.00128856
0.746649
-0.00169658
0.710917
-0.00200992
0.677012
-0.00234426
0.644995
-0.00270674
0.614724
-0.00321055
0.586185
-0.00381272
0.559149
-0.00443933
0.533561
-0.005121
0.509342
-0.00593896
0.486465
-0.00704541
0.464865
-0.00837443
0.444302
-0.0100292
0.424933
-0.0119475
0.406472
-0.0139923
0.388703
-0.0160887
0.371654
-0.0182409
0.355371
-0.0203093
0.339741
-0.0222452
0.324957
-0.0240332
0.310666
-0.0256949
0.296893
-0.0271701
0.28372
-0.0284411
0.271096
-0.0296417
0.259038
-0.0308696
0.247437
-0.0321079
0.236207
-0.03333
0.22536
-0.0344393
0.214895
-0.0353734
0.204774
-0.0362343
0.195054
-0.0369775
0.185699
-0.0374785
0.176637
-0.0377344
0.167879
-0.0378896
0.15947
-0.0379594
0.151329
-0.0377795
0.14339
-0.0375041
0.135986
-0.0366753
0.128512
-0.0352131
0.119961
-0.0323816
0.109427
-0.0267337
0.0934834
-0.0169357
0.0664966
-0.00297559
0.023902
-0.00173465
0.00332333
0.935454
0.00221393
0.960604
0.0013876
0.914172
0.000522098
0.868736
-4.5428e-05
0.825382
-0.000435921
0.785019
-0.000674321
0.746887
-0.000818033
0.711061
-0.000970937
0.677164
-0.00111582
0.64514
-0.00129707
0.614905
-0.00152439
0.586413
-0.00202978
0.559654
-0.00283138
0.534362
-0.00380684
0.510317
-0.00488279
0.487541
-0.00602932
0.466012
-0.00720592
0.445478
-0.00836741
0.426094
-0.00966858
0.407774
-0.0111853
0.390219
-0.0128282
0.373297
-0.0146037
0.357147
-0.0165207
0.341658
-0.0185988
0.327035
-0.0208618
0.312929
-0.0231938
0.299225
-0.025601
0.286127
-0.0280373
0.273532
-0.0303074
0.261308
-0.0323156
0.249445
-0.034069
0.23796
-0.035576
0.226867
-0.0368969
0.216216
-0.0380817
0.205959
-0.0390335
0.196006
-0.0397933
0.186459
-0.0404724
0.177317
-0.0410623
0.168468
-0.0413751
0.159783
-0.0413882
0.151342
-0.0413487
0.143351
-0.0413619
0.135999
-0.0405686
0.127719
-0.0388688
0.118261
-0.0352488
0.105807
-0.0278511
0.0860857
-0.0149747
0.0536201
-0.00208281
0.0110102
-0.00381746
0.00310223
0.932352
0.00190627
0.9618
0.00108226
0.914996
0.000211442
0.869607
-0.000225451
0.825819
-0.000501506
0.785295
-0.000594291
0.74698
-0.000510152
0.710977
-0.000447828
0.677102
-0.000356469
0.645049
-0.000311892
0.61486
-0.000224905
0.586326
-0.000139718
0.559569
-0.000221773
0.534444
-0.000585336
0.510681
-0.00127418
0.48823
-0.002314
0.467052
-0.00377192
0.446936
-0.00553275
0.427855
-0.0074951
0.409736
-0.00968487
0.392409
-0.0120385
0.37565
-0.0144747
0.359583
-0.0168848
0.344068
-0.0191868
0.329337
-0.0214317
0.315174
-0.0235899
0.301383
-0.0255477
0.288085
-0.0274108
0.275396
-0.029307
0.263204
-0.031229
0.251367
-0.0331409
0.239872
-0.0350199
0.228746
-0.0367782
0.217974
-0.038378
0.207559
-0.0399199
0.197548
-0.041322
0.187861
-0.0424317
0.178426
-0.043238
0.169275
-0.0439567
0.160502
-0.0446584
0.152044
-0.0453502
0.144043
-0.0453383
0.135987
-0.0445745
0.126955
-0.0426626
0.116349
-0.0378725
0.101017
-0.0277652
0.0759784
-0.0108531
0.0367079
-0.00166047
0.0018176
-0.00547793
0.00328858
0.929063
0.00184954
0.963239
0.000927043
0.915919
2.51217e-05
0.870509
-0.000477114
0.826322
-0.000646157
0.785464
-0.000590019
0.746924
-0.000248737
0.710636
0.00020175
0.676652
0.000620538
0.64463
0.000953861
0.614527
0.00107619
0.586203
0.00102496
0.55962
0.000809181
0.53466
0.000419346
0.511071
-0.000129425
0.488779
-0.000787759
0.46771
-0.00159931
0.447748
-0.00266824
0.428924
-0.00403894
0.411107
-0.00568174
0.394052
-0.00759826
0.377567
-0.00978399
0.361769
-0.0122303
0.346515
-0.0148519
0.331958
-0.017676
0.317998
-0.0206774
0.304384
-0.0238338
0.291241
-0.0269315
0.278493
-0.0298116
0.266084
-0.0324905
0.254046
-0.0349565
0.242338
-0.0371818
0.230972
-0.0392507
0.220043
-0.0411683
0.209476
-0.0428193
0.199199
-0.0442796
0.189321
-0.0456943
0.179841
-0.0470617
0.170642
-0.0481399
0.16158
-0.0489078
0.152812
-0.0496177
0.144753
-0.0495469
0.135916
-0.0486849
0.126093
-0.0457892
0.113453
-0.0386565
0.0938841
-0.0248624
0.0621844
-0.00652
0.0183655
-0.000633761
-0.00406864
-0.00611169
0.00295848
0.926104
0.00118192
0.965015
1.44522e-05
0.917086
-0.000988669
0.871512
-0.00143413
0.826767
-0.00163348
0.785664
-0.00149654
0.746787
-0.001156
0.710295
-0.000517095
0.676013
0.000303531
0.643809
0.00124327
0.613587
0.00218657
0.58526
0.00300142
0.558805
0.00357115
0.53409
0.00373843
0.510904
0.00345765
0.489059
0.00265904
0.468509
0.00143303
0.448974
-0.000104322
0.430461
-0.00199364
0.412996
-0.00422907
0.396288
-0.00672942
0.380067
-0.00939469
0.364434
-0.01215
0.34927
-0.0149272
0.334736
-0.0177365
0.320807
-0.0204217
0.307069
-0.0229932
0.293813
-0.0256335
0.281134
-0.0283717
0.268822
-0.0311007
0.256775
-0.0338015
0.245039
-0.0364916
0.233662
-0.0390373
0.222589
-0.0414404
0.211879
-0.0438212
0.20158
-0.046065
0.191565
-0.0479814
0.181757
-0.049519
0.17218
-0.0510153
0.163076
-0.052688
0.154485
-0.0536848
0.145749
-0.0539211
0.136153
-0.0527753
0.124947
-0.0482052
0.108883
-0.0373602
0.0830392
-0.0182141
0.0430383
-0.00345931
0.00361069
0.000139631
-0.00766758
-0.00597206
0.0027131
0.923391
0.000587522
0.967141
-0.000915475
0.918589
-0.00223667
0.872833
-0.00275662
0.827287
-0.00290207
0.785809
-0.0025089
0.746394
-0.00188672
0.709673
-0.00103207
0.675158
-5.37785e-05
0.642831
0.000879831
0.612654
0.00180041
0.584339
0.00267319
0.557933
0.00341349
0.53335
0.00396909
0.510348
0.00432214
0.488706
0.00441122
0.46842
0.0040914
0.449294
0.00331317
0.43124
0.00214014
0.414169
0.000525052
0.397903
-0.001556
0.382148
-0.00408615
0.366964
-0.0070186
0.352202
-0.0101578
0.337875
-0.0135907
0.32424
-0.0174146
0.310893
-0.0213251
0.297723
-0.0250958
0.284904
-0.0287046
0.272431
-0.0321801
0.260251
-0.035472
0.248331
-0.038555
0.236745
-0.0415304
0.225564
-0.0443291
0.214678
-0.0468002
0.204051
-0.0490503
0.193815
-0.0513036
0.184011
-0.0536182
0.174494
-0.0556656
0.165124
-0.0572764
0.156096
-0.0581658
0.146639
-0.0581008
0.136088
-0.0555256
0.122372
-0.0481351
0.101493
-0.0330666
0.0679707
-0.0111437
0.0211154
-0.00219828
-0.00533478
7.51252e-05
-0.00994098
-0.00589694
0.00210518
0.921286
-0.000586341
0.969832
-0.00249141
0.920494
-0.00416673
0.874509
-0.0051438
0.828264
-0.00563952
0.786305
-0.00532176
0.746076
-0.00455645
0.708908
-0.00336409
0.673966
-0.00175012
0.641217
0.000112146
0.610791
0.00197621
0.582475
0.00375646
0.556152
0.00525512
0.531851
0.00630234
0.509301
0.00675215
0.488256
0.006679
0.468493
0.00608987
0.449883
0.00500297
0.432326
0.00346781
0.415704
0.00147332
0.399897
-0.00094672
0.384568
-0.00369891
0.369716
-0.0067466
0.35525
-0.00999632
0.341125
-0.0132467
0.327491
-0.0164541
0.314101
-0.0198161
0.301085
-0.0233569
0.288445
-0.0269902
0.276064
-0.0306027
0.263863
-0.0341997
0.251928
-0.0377374
0.240282
-0.041099
0.228926
-0.0443713
0.21795
-0.0476751
0.207355
-0.0508936
0.197034
-0.0537883
0.186906
-0.0562564
0.176962
-0.0586417
0.167509
-0.0607843
0.158238
-0.0620762
0.147931
-0.061607
0.135619
-0.0571815
0.117947
-0.0454484
0.0897594
-0.0237621
0.0462845
-0.00564129
0.00299454
-0.000827422
-0.0101487
0.000305669
-0.0110741
-0.00559127
0.00169295
0.919593
-0.00149386
0.973019
-0.00399233
0.922993
-0.0061086
0.876625
-0.00742885
0.829584
-0.00813812
0.787014
-0.00800837
0.745946
-0.00728646
0.708186
-0.00611557
0.672795
-0.00465823
0.63976
-0.00292755
0.609061
-0.000999733
0.580547
0.00107242
0.55408
0.00317482
0.529749
0.00516756
0.507308
0.0068364
0.486588
0.00803288
0.467296
0.00864209
0.449273
0.00859968
0.432369
0.00792954
0.416374
0.00662411
0.401203
0.00460364
0.386589
0.00194341
0.372376
-0.00123939
0.358433
-0.00487372
0.344759
-0.00910107
0.331718
-0.0137079
0.318708
-0.0182985
0.305676
-0.0228111
0.292958
-0.0272231
0.280476
-0.0315652
0.268205
-0.0357338
0.256096
-0.0397155
0.244264
-0.0436098
0.23282
-0.047293
0.221633
-0.0506646
0.210727
-0.0537769
0.200146
-0.0568419
0.189971
-0.0600591
0.18018
-0.0631561
0.170606
-0.0652747
0.160357
-0.0659235
0.148579
-0.0636925
0.133388
-0.0558661
0.11012
-0.0387518
0.072645
-0.0137669
0.0212996
-0.00319144
-0.00758092
-0.000318268
-0.0130218
0.000297396
-0.0116897
-0.00529387
0.0010509
0.918542
-0.00258528
0.976655
-0.00603141
0.926439
-0.00886461
0.879458
-0.0108899
0.83161
-0.0122628
0.788387
-0.0125872
0.74627
-0.0119408
0.707539
-0.0103156
0.67117
-0.00805912
0.637503
-0.00540899
0.60641
-0.00258634
0.577725
0.000195827
0.551298
0.00275079
0.527194
0.00493598
0.505123
0.00668966
0.484834
0.00785565
0.46613
0.00842796
0.448701
0.0083313
0.432466
0.00755098
0.417155
0.00612447
0.402629
0.00408556
0.388628
0.00152991
0.374932
-0.00158332
0.361546
-0.00502525
0.348201
-0.00850355
0.335196
-0.0123176
0.322522
-0.016522
0.30988
-0.0209902
0.297426
-0.0256047
0.285091
-0.0301938
0.272795
-0.0347538
0.260656
-0.0392207
0.248731
-0.0434273
0.237027
-0.0475324
0.225739
-0.0516542
0.214848
-0.0557835
0.204275
-0.0597523
0.193939
-0.0633167
0.183744
-0.066378
0.173667
-0.0686052
0.162584
-0.0692506
0.149225
-0.0652265
0.129363
-0.0524023
0.0972959
-0.0273778
0.0476205
-0.00726234
0.00118414
-0.0020552
-0.0127881
-0.000288352
-0.0147887
0.000195092
-0.0121732
-0.00509878
0.000491943
0.91805
-0.00275483
0.979902
-0.00727057
0.930955
-0.0105902
0.882778
-0.0132556
0.834275
-0.0153396
0.790471
-0.016384
0.747315
-0.0167024
0.707858
-0.0159942
0.670462
-0.0142712
0.63578
-0.0117227
0.603862
-0.00854176
0.574544
-0.0049925
0.547749
-0.00124788
0.523449
0.00241632
0.501459
0.00574135
0.481509
0.00848037
0.463391
0.0104632
0.446718
0.0116832
0.431245
0.0120398
0.416798
0.0114726
0.403196
0.00991641
0.390184
0.00742498
0.377423
0.00417161
0.364799
3.47697e-05
0.352338
-0.00479261
0.340024
-0.00990999
0.327639
-0.0151982
0.315168
-0.0204595
0.302687
-0.0257628
0.290394
-0.0310605
0.278092
-0.0361984
0.265794
-0.0411329
0.253665
-0.0459358
0.24183
-0.0504441
0.230247
-0.0546421
0.219046
-0.0586286
0.208262
-0.0626119
0.197923
-0.0667335
0.187865
-0.0703288
0.177263
-0.072535
0.16479
-0.0710975
0.147787
-0.0629297
0.121196
-0.0438971
0.0782634
-0.0166955
0.020419
-0.00583727
-0.00967413
-0.00286534
-0.01576
-0.0014025
-0.0162515
-0.000399091
-0.0131766
-0.00549787
1.73674e-05
0.918033
-0.00319876
0.983118
-0.00888709
0.936643
-0.0127449
0.886636
-0.0166085
0.838139
-0.0193966
0.793259
-0.0209133
0.748832
-0.0213619
0.708306
-0.0206345
0.669734
-0.0188052
0.633951
-0.0160459
0.601103
-0.0125846
0.571083
-0.00874379
0.543908
-0.00479609
0.519502
-0.00100587
0.497668
0.00249908
0.478004
0.00552806
0.460362
0.00779641
0.44445
0.00924093
0.429801
0.00983492
0.416204
0.00957674
0.403454
0.0084799
0.391281
0.00657646
0.379327
0.00385876
0.367517
0.000838913
0.355358
-0.00283152
0.343694
-0.00724692
0.332055
-0.0122082
0.320129
-0.0176663
0.308145
-0.023266
0.295994
-0.0288839
0.28371
-0.034526
0.271436
-0.0400015
0.259141
-0.0451419
0.24697
-0.0500704
0.235175
-0.054899
0.223875
-0.0597296
0.213092
-0.0644498
0.202643
-0.0688007
0.192216
-0.0721421
0.180604
-0.0735709
0.166219
-0.0703951
0.144611
-0.0581363
0.108937
-0.0315807
0.0517078
-0.0107917
-0.000370063
-0.00529193
-0.0151739
-0.00327984
-0.0177721
-0.00216043
-0.0173709
-0.00105111
-0.0142859
-0.00654898
-0.000386781
0.91842
-0.00288127
0.985613
-0.00935979
0.943122
-0.0135057
0.890781
-0.0184335
0.843066
-0.022557
0.797383
-0.0256375
0.751912
-0.0276624
0.710331
-0.0281416
0.670213
-0.0271367
0.632946
-0.0246641
0.59863
-0.0208924
0.567311
-0.0161095
0.539125
-0.0106918
0.514084
-0.00511829
0.492095
0.000235151
0.47265
0.00507274
0.455525
0.00916213
0.440361
0.0122318
0.426731
0.01416
0.414276
0.0148819
0.402732
0.0142778
0.391885
0.0124514
0.381153
0.00936521
0.370603
0.00501201
0.359711
0.000208468
0.348498
-0.00513591
0.337399
-0.0108147
0.325808
-0.0167963
0.314127
-0.0230763
0.302274
-0.0294765
0.29011
-0.0356774
0.277637
-0.0417366
0.2652
-0.0475869
0.25282
-0.052949
0.240537
-0.0577878
0.228714
-0.06232
0.217624
-0.0670895
0.207412
-0.0717471
0.196874
-0.0750091
0.183866
-0.0748054
0.166015
-0.0679564
0.137763
-0.049453
0.0904335
-0.020467
0.0227218
-0.00838814
-0.012449
-0.00422399
-0.019338
-0.00229768
-0.0196984
-0.0014504
-0.0182182
-0.000893945
-0.0148424
-0.00744293
-0.00170688
0.920127
-0.00325301
0.987159
-0.0102424
0.950111
-0.0148788
0.895418
-0.0204299
0.848618
-0.0247709
0.801723
-0.0286332
0.755774
-0.0313846
0.713082
-0.0326953
0.671524
-0.0325169
0.632768
-0.0306902
0.596803
-0.027535
0.564156
-0.0232294
0.53482
-0.018096
0.508951
-0.0125149
0.486514
-0.0069918
0.467127
-0.00176068
0.450294
0.00292861
0.435671
0.00666115
0.422999
0.00930631
0.411631
0.0108927
0.401146
0.0115036
0.391274
0.0109821
0.381675
0.00962772
0.371958
0.00701812
0.36232
0.00316031
0.352355
-0.00158299
0.342142
-0.00728533
0.33151
-0.013454
0.320296
-0.0199827
0.308802
-0.0267401
0.296868
-0.0336265
0.284524
-0.0403039
0.271877
-0.0466399
0.259156
-0.0525875
0.246485
-0.0580953
0.234222
-0.063203
0.222732
-0.0682558
0.212465
-0.0722289
0.200847
-0.0749426
0.18658
-0.0731348
0.164207
-0.0607929
0.125421
-0.0364428
0.0660834
-0.0120696
-0.00165136
-0.00357643
-0.0209422
0.000200418
-0.0231149
0.00159846
-0.0210964
0.00105543
-0.0176752
7.49894e-05
-0.0138619
-0.00736794
0.00123284
0.918894
-0.00117952
0.989571
-0.00831977
0.957251
-0.0147107
0.901809
-0.0216901
0.855597
-0.0278916
0.807925
-0.0335813
0.761464
-0.0380714
0.717572
-0.0409186
0.674371
-0.041848
0.633697
-0.040483
0.595438
-0.0370975
0.56077
-0.0318725
0.529595
-0.0253574
0.502435
-0.0181714
0.479328
-0.0105961
0.459552
-0.00317482
0.442872
0.00357917
0.428917
0.00906153
0.417516
0.0131958
0.407497
0.0157594
0.398582
0.0165003
0.390533
0.0156973
0.382478
0.0133542
0.374301
0.0101015
0.365573
0.00578009
0.356677
0.000581733
0.347341
-0.0054547
0.337547
-0.012192
0.327033
-0.0193969