/*--------------------------------*- C++ -*----------------------------------*\
| =========                 |                                                 |
| \\      /  F ield         | OpenFOAM: The Open Source CFD Toolbox           |
|  \\    /   O peration     | Version:  v1912                                 |
|   \\  /    A nd           | Website:  www.openfoam.com                      |
|    \\/     M anipulation  |                                                 |
\*---------------------------------------------------------------------------*/
FoamFile
{
    version     2.0;
    format      ascii;
    class       volVectorField;
    location    "0.48";
    object      U;
}
// * * * * * * * * * * * * * * * * * * * * * * * * * * * * * * * * * * * * * //

dimensions      [0 1 -1 0 0 0 0];


internalField   nonuniform List<vector> 
6600
(
(39.843 -0.0522039 0)
(40.0818 -0.0664768 3.4515e-20)
(40.1308 0.0243734 2.4293e-18)
(40.1695 0.126818 0)
(40.2127 0.236652 3.00523e-18)
(40.2738 0.380789 1.03556e-19)
(40.3454 0.524387 -1.14986e-19)
(40.4181 0.689333 -1.27368e-19)
(40.4919 0.853246 2.55964e-18)
(40.5723 1.00835 -1.9687e-19)
(40.6482 1.1642 0)
(40.706 1.32542 -3.12686e-18)
(40.7774 1.48051 0)
(40.858 1.63717 -3.56538e-18)
(40.9342 1.80116 -4.61997e-18)
(41.0095 1.96255 -2.43102e-18)
(41.0676 2.15933 0)
(41.1395 2.3741 0)
(41.1692 2.64647 3.8023e-18)
(41.1849 2.93897 -3.63855e-18)
(41.2219 3.21905 -5.16688e-19)
(41.2486 3.51919 -1.79394e-18)
(41.2752 3.85677 -3.32399e-18)
(41.2879 4.23272 7.31925e-19)
(41.2995 4.64253 2.54653e-18)
(41.3134 5.10256 0)
(41.3346 5.60517 6.14788e-18)
(41.3571 6.14538 0)
(41.3492 6.76181 -3.00245e-18)
(41.3722 7.47622 -1.92478e-18)
(41.4416 8.30598 -3.31185e-19)
(41.4778 9.16134 -2.27069e-18)
(41.5143 10.0546 -9.00458e-19)
(41.527 11.0284 1.75627e-18)
(41.5086 12.0763 3.77247e-19)
(41.4862 13.2031 1.86887e-18)
(41.4238 14.3976 3.42694e-18)
(41.3648 15.709 3.0624e-18)
(41.3149 17.1419 -2.04201e-18)
(41.4404 18.6293 2.03141e-18)
(41.6083 20.1981 8.86762e-19)
(41.6545 21.8797 0)
(41.7496 23.681 3.69426e-19)
(41.8773 25.6702 -7.25918e-19)
(42.0273 27.7318 0)
(42.2256 30.0071 -2.34621e-18)
(42.3751 32.1877 -5.85705e-18)
(43.0021 34.9166 0)
(41.532 36.3426 0)
(31.0143 29.6259 -3.54295e-18)
(39.72 -0.052878 2.03384e-18)
(40.1572 -0.0834999 -2.19978e-18)
(40.202 0.0261438 0)
(40.2505 0.156266 -4.20352e-20)
(40.3032 0.304486 3.00548e-18)
(40.3621 0.457457 1.02874e-19)
(40.4401 0.602906 -3.08609e-22)
(40.5275 0.748534 -1.26581e-19)
(40.603 0.891475 0)
(40.6798 1.03945 -4.82015e-18)
(40.7809 1.18723 -1.7287e-19)
(40.8712 1.34375 3.04047e-18)
(40.9486 1.51536 3.16467e-18)
(41.0349 1.68706 1.96437e-18)
(41.1072 1.88789 -3.56547e-22)
(41.1882 2.08544 2.94257e-19)
(41.2392 2.3005 -2.58833e-18)
(41.2867 2.51404 0)
(41.3455 2.71395 0)
(41.3813 2.97014 3.71423e-18)
(41.4491 3.26972 5.08635e-19)
(41.5474 3.61036 -2.77538e-18)
(41.6345 4.00148 -2.45317e-18)
(41.7 4.42213 -2.71784e-18)
(41.7543 4.87484 -2.23006e-18)
(41.8122 5.36833 -8.63142e-19)
(41.8488 5.93811 -1.03156e-18)
(41.8835 6.55653 -1.05539e-18)
(41.9375 7.20127 2.9927e-18)
(41.9912 7.8721 2.74073e-19)
(41.9983 8.59185 -3.5955e-18)
(41.9791 9.37137 3.14631e-18)
(42.0129 10.2211 2.17395e-18)
(42.0862 11.1713 -2.63506e-18)
(42.1244 12.2046 4.1717e-19)
(42.2055 13.3161 -1.91156e-18)
(42.392 14.5185 1.25774e-18)
(42.59 15.8134 -1.18679e-18)
(42.7742 17.1865 -5.59381e-19)
(42.9198 18.6976 -4.44244e-19)
(43.0817 20.3111 0)
(43.2985 22.038 0)
(43.5227 23.827 9.07908e-19)
(43.8779 25.7514 -1.05636e-18)
(44.2837 27.733 -3.96333e-18)
(44.7504 29.9167 2.42307e-18)
(45.1733 32.008 8.16457e-18)
(45.9829 34.533 0)
(44.5698 35.5037 -8.45872e-18)
(32.5803 28.5047 3.80573e-18)
(39.6306 -0.0370427 -3.93939e-20)
(40.2573 -0.0795891 2.24595e-18)
(40.2831 0.0737611 2.40591e-18)
(40.3375 0.202784 -2.83309e-22)
(40.4061 0.345839 -1.86377e-19)
(40.4846 0.490191 1.02214e-19)
(40.5607 0.642724 0)
(40.65 0.788511 0)
(40.7391 0.93375 0)
(40.8164 1.08393 2.6339e-18)
(40.8877 1.2394 -1.70556e-19)
(40.9692 1.38938 -3.0604e-18)
(41.0483 1.54734 -1.53197e-18)
(41.1373 1.70585 3.49832e-18)
(41.2263 1.86869 2.04481e-18)
(41.3261 2.05649 -2.89089e-19)
(41.4425 2.26203 5.45865e-18)
(41.5165 2.53223 -2.80527e-18)
(41.592 2.82938 -3.11225e-18)
(41.638 3.11781 0)
(41.6807 3.42211 -1.91136e-18)
(41.7612 3.73694 2.23481e-18)
(41.8389 4.10316 2.47897e-18)
(41.9233 4.5252 2.74893e-18)
(41.9979 4.99403 2.31241e-18)
(42.087 5.4809 -3.31621e-19)
(42.187 5.99334 -4.46359e-19)
(42.2776 6.57641 -1.34661e-18)
(42.346 7.24315 -5.31349e-19)
(42.4829 8.00111 1.86019e-18)
(42.6632 8.84652 6.15252e-19)
(42.8158 9.72918 0)
(42.9874 10.6515 -2.58453e-18)
(43.1555 11.6364 6.09999e-19)
(43.3042 12.6749 1.25689e-18)
(43.4091 13.7897 1.49575e-18)
(43.5195 14.9821 -9.12921e-19)
(43.6726 16.2636 -4.14735e-19)
(43.8807 17.6362 5.26477e-19)
(44.2859 19.0563 0)
(44.7232 20.5571 1.24335e-18)
(45.0873 22.1412 0)
(45.5325 23.82 0)
(46.0185 25.64 3.85547e-18)
(46.5788 27.5188 2.38497e-18)
(47.2187 29.5882 -4.38372e-18)
(47.8946 31.6358 -4.7485e-18)
(48.8303 33.8877 0)
(47.3984 34.3721 -5.06166e-18)
(33.7988 26.9754 5.59817e-18)
(39.5693 -0.0196194 -2.0085e-18)
(40.3809 -0.0521051 1.68386e-20)
(40.4055 0.129103 -2.47116e-18)
(40.4778 0.243728 -2.55853e-18)
(40.531 0.390694 -2.89121e-18)
(40.6038 0.532577 -1.53805e-18)
(40.6938 0.670209 -1.11345e-19)
(40.784 0.805668 0)
(40.8706 0.950746 2.14799e-18)
(40.975 1.09172 2.52886e-18)
(41.072 1.24366 -1.67443e-19)
(41.1694 1.39605 -1.85256e-19)
(41.2566 1.56279 -1.46331e-18)
(41.3477 1.7501 -2.88814e-19)
(41.4381 1.94146 1.81556e-19)
(41.5189 2.15249 -2.81139e-19)
(41.6148 2.35857 2.08717e-19)
(41.7152 2.56378 3.17595e-18)
(41.8116 2.81126 4.25057e-18)
(41.9096 3.11118 0)
(42.0012 3.46131 1.13858e-19)
(42.1362 3.83171 0)
(42.2889 4.22462 0)
(42.4057 4.65661 -6.21644e-19)
(42.5254 5.14091 1.99594e-18)
(42.6492 5.7047 1.93575e-18)
(42.7723 6.31809 -4.0997e-19)
(42.9071 6.95123 1.85115e-18)
(43.0622 7.60436 0)
(43.1759 8.27729 0)
(43.2978 9.008 8.92382e-19)
(43.4063 9.80841 0)
(43.5918 10.6815 7.02844e-19)
(43.8195 11.6407 9.17273e-19)
(44.0258 12.6674 -1.49945e-18)
(44.3254 13.7673 -1.06606e-18)
(44.7185 14.947 1.11907e-19)
(45.1412 16.1964 1.25795e-20)
(45.5567 17.5086 4.86417e-19)
(45.9329 18.9417 5.70585e-19)
(46.3876 20.4506 -3.38606e-18)
(46.9125 22.0462 0)
(47.4754 23.6676 0)
(48.2128 25.3855 -2.33117e-18)
(49.0215 27.1266 -4.11326e-18)
(49.8775 29.0335 -9.6824e-19)
(50.7535 30.9695 -7.22967e-18)
(51.6614 32.9053 7.98721e-18)
(49.9243 32.9459 1.11697e-17)
(34.6417 25.1376 0)
(39.5163 -0.000864852 -7.5183e-21)
(40.5236 -0.0353313 2.09246e-18)
(40.5465 0.175111 2.28907e-18)
(40.6351 0.278847 2.65014e-18)
(40.6952 0.417854 0)
(40.7708 0.553996 4.14353e-20)
(40.8517 0.698352 0)
(40.9464 0.834045 -1.19957e-19)
(41.0359 0.977122 -4.12121e-18)
(41.1251 1.12006 -2.53785e-18)
(41.2044 1.27663 1.63426e-19)
(41.3039 1.42207 1.80129e-19)
(41.3957 1.57482 -2.00465e-19)
(41.4921 1.73258 -1.80634e-18)
(41.6098 1.9023 -4.16546e-18)
(41.7506 2.0979 2.72624e-19)
(41.8796 2.35056 -4.79883e-18)
(41.9984 2.63471 3.30281e-19)
(42.1043 2.92126 -1.51143e-18)
(42.2168 3.21647 -8.06061e-19)
(42.2977 3.54464 2.28141e-18)
(42.3928 3.90899 0)
(42.5596 4.31153 0)
(42.7025 4.75638 -1.08811e-18)
(42.8516 5.21636 -1.31865e-18)
(43.0249 5.70398 1.57251e-18)
(43.2133 6.25002 -3.65359e-19)
(43.3847 6.87613 0)
(43.5577 7.57167 3.74021e-19)
(43.8525 8.36121 -4.16619e-19)
(44.1721 9.20251 -9.0702e-19)
(44.4681 10.095 -9.08363e-19)
(44.7695 11.0174 3.67184e-19)
(45.1074 11.9846 -1.8092e-19)
(45.4155 12.9913 2.01675e-19)
(45.6758 14.0639 0)
(45.9858 15.212 9.0282e-20)
(46.363 16.4217 1.73412e-18)
(46.8326 17.6969 -9.24548e-19)
(47.5067 19.0107 -1.39358e-18)
(48.2005 20.3846 2.16343e-18)
(48.874 21.801 0)
(49.6311 23.287 0)
(50.4159 24.8627 -3.85456e-18)
(51.3209 26.4632 8.50537e-18)
(52.3267 28.2147 2.35365e-18)
(53.3949 30.0545 4.35416e-18)
(54.2625 31.691 -9.46188e-18)
(52.1354 31.2624 8.38325e-19)
(35.0343 23.02 -1.5019e-17)
(39.4809 0.0189604 1.88956e-18)
(40.6758 -0.0153858 -6.38511e-20)
(40.6929 0.213956 -2.33311e-18)
(40.7964 0.297375 1.23929e-18)
(40.8395 0.450765 0)
(40.9248 0.570477 1.60705e-18)
(41.009 0.702229 -5.32241e-20)
(41.1003 0.832207 -1.8451e-18)
(41.2062 0.966621 2.10559e-18)
(41.3297 1.09805 0)
(41.4358 1.24671 1.57586e-19)
(41.5411 1.40347 1.1943e-18)
(41.6605 1.58118 -1.70262e-18)
(41.7749 1.77467 2.1391e-19)
(41.8743 1.97719 2.16257e-18)
(41.9876 2.18132 -2.60452e-19)
(42.1381 2.37556 1.53343e-18)
(42.286 2.60981 -3.1613e-19)
(42.4238 2.89395 3.41066e-19)
(42.583 3.22696 1.05932e-18)
(42.7504 3.5776 1.35798e-18)
(42.9202 3.9653 6.25419e-21)
(43.1272 4.37054 4.80703e-19)
(43.336 4.83528 1.79592e-18)
(43.532 5.36648 0)
(43.7371 5.9458 -1.2594e-18)
(43.9624 6.56049 2.88025e-19)
(44.2162 7.19066 -3.14318e-20)
(44.4451 7.83462 -9.43802e-20)
(44.6514 8.50797 3.15461e-19)
(44.8827 9.23083 -3.78069e-19)
(45.1284 10.0028 5.87244e-19)
(45.4714 10.8589 0)
(45.8612 11.7922 0)
(46.2711 12.7953 0)
(46.7888 13.8417 0)
(47.3885 14.9471 1.4168e-18)
(48.0298 16.1072 -2.87714e-18)
(48.6583 17.3059 0)
(49.2449 18.598 1.77263e-20)
(49.9538 19.9393 -3.9074e-19)
(50.7335 21.3386 -5.35818e-18)
(51.5833 22.7254 2.97957e-18)
(52.6223 24.1629 0)
(53.7143 25.5785 3.1002e-18)
(54.8226 27.1283 -1.1204e-17)
(55.9588 28.8239 8.07103e-18)
(56.6138 30.1259 6.0401e-18)
(53.8154 29.2741 2.24228e-17)
(34.8772 20.6075 -1.68241e-17)
(39.4592 0.0272639 -1.8871e-18)
(40.8282 -0.0230913 -4.02147e-18)
(40.8598 0.228545 3.47761e-20)
(40.9575 0.282169 -1.24359e-18)
(41 0.450936 1.29368e-18)
(41.0842 0.557495 -4.65652e-20)
(41.1704 0.693796 1.67421e-18)
(41.2665 0.817073 1.85249e-18)
(41.3627 0.94973 2.0348e-18)
(41.468 1.08601 -6.95909e-20)
(41.5792 1.22711 -1.19701e-18)
(41.6906 1.37048 -5.95595e-20)
(41.8133 1.52425 1.51859e-18)
(41.9525 1.69294 0)
(42.1197 1.886 0)
(42.283 2.12867 1.21475e-19)
(42.4458 2.39544 2.01071e-18)
(42.6259 2.66388 0)
(42.7892 2.9424 1.57202e-19)
(42.9346 3.25948 -1.62632e-18)
(43.0886 3.60719 -1.39103e-18)
(43.2516 4.00777 5.42117e-19)
(43.4655 4.42454 0)
(43.703 4.85293 -9.6982e-19)
(43.9352 5.30688 -2.22604e-19)
(44.1959 5.79683 2.48229e-19)
(44.4751 6.34764 0)
(44.7538 6.98148 0)
(45.1051 7.69357 -3.87998e-19)
(45.5374 8.4761 -1.69588e-20)
(46.0015 9.29459 4.55913e-19)
(46.4344 10.1568 -8.07221e-20)
(46.8574 11.0508 1.5968e-19)
(47.3357 11.9677 -5.26628e-19)
(47.8034 12.8978 1.3374e-18)
(48.235 13.8854 6.5033e-19)
(48.7272 14.9298 -9.8143e-19)
(49.2915 16.0154 1.47968e-18)
(49.9804 17.1514 -2.75521e-18)
(50.8827 18.3049 3.7245e-20)
(51.7822 19.4807 -4.29734e-19)
(52.6914 20.6601 2.738e-18)
(53.6598 21.8901 4.26048e-18)
(54.644 23.1714 -4.73305e-18)
(55.7782 24.4415 3.06983e-18)
(57.0163 25.8261 0)
(58.2523 27.3615 4.92571e-18)
(58.7155 28.352 7.44689e-18)
(55.0944 27.0523 -1.54222e-17)
(34.1011 17.946 -4.88515e-18)
(39.4422 0.0326644 1.77756e-18)
(40.9859 -0.0178039 1.97062e-18)
(41.0092 0.246724 1.70144e-20)
(41.1105 0.276467 -1.16923e-18)
(41.1524 0.445666 -2.63414e-18)
(41.2422 0.529376 1.4677e-18)
(41.3212 0.656646 -3.24602e-18)
(41.4259 0.767116 8.63258e-19)
(41.5493 0.885067 -1.97984e-18)
(41.6779 1.01353 -1.11098e-18)
(41.7963 1.15778 2.49639e-18)
(41.9271 1.31596 -1.48459e-18)
(42.0685 1.49986 -1.37529e-18)
(42.2114 1.67819 1.83348e-21)
(42.3525 1.88472 -7.11349e-19)
(42.5436 2.07358 8.87896e-19)
(42.7316 2.31078 -1.04077e-18)
(42.9449 2.57641 0)
(43.1667 2.88016 0)
(43.3956 3.20133 0)
(43.6302 3.54877 -1.60935e-19)
(43.8679 3.93486 -5.72394e-19)
(44.1463 4.37182 -4.82805e-19)
(44.4534 4.86464 -1.93791e-19)
(44.7474 5.40677 0)
(45.0517 5.98194 0)
(45.3836 6.57254 2.5879e-19)
(45.7356 7.16953 -1.17673e-19)
(46.0439 7.79009 -1.13317e-19)
(46.3535 8.43342 1.37214e-19)
(46.7076 9.13088 9.56752e-20)
(47.1119 9.85789 3.99002e-19)
(47.5952 10.645 -1.99649e-19)
(48.1433 11.5108 8.90323e-19)
(48.7381 12.4374 -6.56899e-19)
(49.4326 13.3839 -3.23078e-19)
(50.2037 14.3707 2.03362e-19)
(51.0236 15.3918 1.05613e-18)
(51.8169 16.4243 1.12014e-18)
(52.5559 17.5212 1.91856e-18)
(53.4429 18.6469 -4.06615e-19)
(54.3921 19.8058 3.83781e-18)
(55.4403 20.9151 -4.26898e-18)
(56.661 22.0311 0)
(57.8939 23.0997 0)
(59.1094 24.2802 0)
(60.2759 25.636 0)
(60.3337 26.276 0)
(55.5846 24.5788 -9.08573e-18)
(32.5403 15.0747 1.49309e-17)
(39.4162 0.0428919 -1.78118e-18)
(41.1319 -0.0471261 0)
(41.1717 0.232162 0)
(41.2701 0.231864 1.19006e-18)
(41.3091 0.425983 1.27741e-18)
(41.4004 0.488361 -1.47008e-18)
(41.4847 0.612594 1.62098e-18)
(41.5808 0.716968 -8.66013e-19)
(41.6903 0.840394 9.09162e-19)
(41.8216 0.963299 1.1118e-18)
(41.9608 1.08671 -1.15279e-18)
(42.1038 1.22392 1.11265e-18)
(42.2552 1.38065 2.03072e-18)
(42.4459 1.54908 0)
(42.6325 1.76668 8.22269e-19)
(42.8355 2.00191 -9.9772e-19)
(43.056 2.24837 4.43038e-21)
(43.2867 2.50987 -9.26634e-19)
(43.5196 2.80522 1.11664e-18)
(43.743 3.13958 0)
(43.9858 3.49905 0)
(44.2233 3.88487 5.30646e-19)
(44.5072 4.2771 1.40203e-19)
(44.8352 4.68939 -4.93233e-19)
(45.1681 5.1352 -1.21096e-19)
(45.5249 5.62052 3.10747e-19)
(45.9111 6.1672 -3.70342e-19)
(46.3288 6.78066 3.50127e-20)
(46.8347 7.45634 -4.16897e-21)
(47.3978 8.19204 -9.08251e-20)
(47.9836 8.9599 7.47139e-20)
(48.5354 9.77423 -2.94152e-19)
(49.0965 10.6119 4.25313e-19)
(49.6988 11.4395 -6.76788e-19)
(50.2952 12.255 0)
(50.8646 13.1285 -8.86928e-19)
(51.4937 14.0281 -9.49227e-19)
(52.1865 14.9519 2.64619e-19)
(53.0353 15.9114 2.33613e-18)
(54.1022 16.8639 -2.29576e-18)
(55.1285 17.8016 -3.72334e-19)
(56.1737 18.7153 -4.35972e-18)
(57.2383 19.6707 1.03658e-17)
(58.318 20.6486 7.91353e-19)
(59.5672 21.5874 9.47452e-19)
(60.9469 22.6669 -4.32337e-18)
(61.9654 23.6751 0)
(61.6729 24.0726 8.06936e-18)
(55.5356 21.9683 -4.24648e-18)
(30.1998 12.1154 0)
(39.3871 0.0388976 6.50672e-21)
(41.2655 -0.0541878 -7.88032e-23)
(41.3098 0.213742 -1.00524e-18)
(41.4113 0.191874 0)
(41.4503 0.380557 -1.90171e-20)
(41.5436 0.425028 -6.35869e-19)
(41.6353 0.548395 0)
(41.7617 0.638334 7.90692e-19)
(41.8996 0.74776 -9.66876e-19)
(42.0341 0.873564 6.1299e-20)
(42.1887 1.0069 1.02776e-18)
(42.3573 1.16059 -5.65222e-19)
(42.5199 1.31953 -7.29809e-19)
(42.6974 1.49169 0)
(42.906 1.65791 0)
(43.123 1.86532 0)
(43.3714 2.0935 -6.83906e-19)
(43.6396 2.35399 9.30256e-19)
(43.9463 2.62602 -1.5313e-18)
(44.2419 2.9374 1.13014e-19)
(44.5638 3.27646 -2.39332e-19)
(44.8961 3.66477 -4.07673e-19)
(45.2519 4.10803 9.04066e-19)
(45.6526 4.59106 6.57229e-19)
(46.039 5.11248 0)
(46.4309 5.66026 -1.94045e-19)
(46.8789 6.21152 8.38044e-20)
(47.3348 6.77694 2.512e-20)
(47.749 7.34923 -1.21968e-19)
(48.1652 7.94579 8.96774e-20)
(48.6381 8.57191 -2.13589e-19)
(49.1768 9.21847 8.75192e-19)
(49.7872 9.90396 -1.11045e-18)
(50.4587 10.6808 1.70804e-18)
(51.1836 11.5035 8.17658e-19)
(52.0094 12.3184 -1.99808e-18)
(52.9016 13.1643 2.61614e-18)
(53.8557 14.0182 -1.84504e-18)
(54.7533 14.8616 -5.06312e-21)
(55.5696 15.7407 0)
(56.5472 16.6331 3.40978e-18)
(57.5768 17.5401 2.41339e-18)
(58.7294 18.3674 3.29937e-19)
(60.0172 19.163 -7.11377e-18)
(61.2776 19.9166 -3.09267e-19)
(62.5399 20.845 -5.14605e-18)
(63.2244 21.54 0)
(62.2798 21.7325 8.44985e-18)
(54.4498 19.2022 -1.41908e-17)
(26.8979 9.12703 0)
(39.359 0.025236 0)
(41.3911 -0.0910084 0)
(41.4654 0.168567 5.361e-19)
(41.5437 0.132445 -3.34008e-20)
(41.5815 0.323112 5.94359e-19)
(41.685 0.345654 6.58351e-19)
(41.7758 0.475538 0)
(41.8933 0.56277 -7.9251e-19)
(42.0402 0.668221 8.19293e-19)
(42.2022 0.772374 0)
(42.3709 0.882406 -1.51228e-18)
(42.5579 1.01116 -4.01041e-20)
(42.7622 1.15923 -7.12328e-20)
(42.977 1.33687 7.94207e-20)
(43.2138 1.53348 0)
(43.4627 1.73443 0)
(43.7291 1.95269 4.89242e-19)
(44.0101 2.20493 3.0252e-19)
(44.3096 2.4826 7.25845e-20)
(44.6118 2.79205 4.55122e-20)
(44.9218 3.12389 -9.40953e-20)
(45.2467 3.46145 4.83303e-20)
(45.5983 3.82138 -3.81693e-19)
(46.0227 4.19208 -1.4033e-19)
(46.4745 4.61072 -1.54888e-20)
(46.9401 5.06805 -7.92579e-20)
(47.4206 5.58731 -4.49045e-22)
(47.9575 6.15235 2.29661e-19)
(48.5897 6.77863 0)
(49.266 7.44397 0)
(49.9536 8.15243 0)
(50.6015 8.89011 -6.4246e-19)
(51.2589 9.63053 -5.57149e-19)
(51.9605 10.335 -6.05182e-19)
(52.6564 11.034 9.64695e-19)
(53.3283 11.7842 1.2504e-18)
(54.0474 12.5201 -6.33791e-19)
(54.8087 13.2705 1.95996e-18)
(55.7503 14.0396 -1.16768e-18)
(56.905 14.7865 -1.62811e-18)
(57.9749 15.4897 -2.09552e-18)
(59.0599 16.1516 2.33666e-18)
(60.1245 16.8511 0)
(61.2147 17.5464 3.9895e-18)
(62.4887 18.1924 -2.22503e-18)
(63.8294 18.9896 2.76396e-18)
(64.2469 19.3793 0)
(62.5163 19.3133 -4.21233e-18)
(52.6316 16.4214 2.48941e-18)
(22.7231 6.28924 0)
(39.3026 0.00960607 3.77098e-19)
(41.5076 -0.106285 0)
(41.5837 0.129972 9.36019e-19)
(41.6502 0.0860617 -4.9869e-19)
(41.6971 0.258555 -5.76769e-19)
(41.8 0.258152 1.9046e-20)
(41.9126 0.381929 -2.1197e-20)
(42.0624 0.447753 0)
(42.2126 0.547318 -7.96335e-19)
(42.3739 0.654775 3.9099e-19)
(42.5636 0.773493 4.82731e-19)
(42.7714 0.890393 -5.51205e-19)
(42.98 1.02406 2.5737e-19)
(43.2151 1.1566 7.07584e-20)
(43.4749 1.32484 -3.83968e-20)
(43.7516 1.51161 0)
(44.0589 1.71326 3.82772e-19)
(44.4035 1.92958 -3.95702e-19)
(44.7729 2.16942 1.10021e-19)
(45.1545 2.44017 -6.79913e-21)
(45.5505 2.75955 -3.83411e-20)
(45.978 3.12669 0)
(46.4026 3.54379 -1.23956e-20)
(46.8675 3.98026 3.21304e-20)
(47.3368 4.44487 -8.35357e-21)
(47.8103 4.93624 7.96861e-20)
(48.3499 5.42903 0)
(48.8923 5.93537 -1.79774e-19)
(49.3977 6.44331 -5.84515e-19)
(49.926 6.97701 3.54486e-19)
(50.5033 7.50812 -8.98318e-19)
(51.1508 8.06444 -4.98521e-19)
(51.858 8.66096 9.89578e-19)
(52.6106 9.33779 -3.71973e-19)
(53.4228 10.0257 -9.7315e-19)
(54.3225 10.6905 -5.72808e-19)
(55.2816 11.3947 -8.18044e-19)
(56.3156 12.0854 0)
(57.2543 12.7544 -1.44818e-18)
(58.0802 13.4264 3.20868e-18)
(59.0695 14.1038 2.08849e-18)
(60.1011 14.7759 -2.5021e-18)
(61.2711 15.3481 3.40382e-18)
(62.5348 15.8688 -1.78942e-18)
(63.7633 16.3947 4.68208e-18)
(64.7094 16.9496 3.49674e-20)
(64.6522 17.1723 0)
(61.7684 16.8505 8.69112e-18)
(49.4675 13.5437 -7.43673e-18)
(17.3777 3.55625 -2.78435e-18)
(39.2122 0.00685915 -3.77411e-19)
(41.5921 -0.137282 3.90715e-19)
(41.6923 0.086857 -4.54357e-19)
(41.7434 0.0224589 4.91618e-19)
(41.7995 0.186392 2.62816e-19)
(41.9039 0.17173 1.83023e-20)
(42.0151 0.291594 -1.00844e-20)
(42.1587 0.340797 0)
(42.3334 0.419248 3.41911e-19)
(42.5191 0.493962 -5.89438e-19)
(42.7146 0.584096 0)
(42.9472 0.692817 2.81753e-20)
(43.1955 0.812177 -8.32297e-20)
(43.4592 0.958797 -2.10548e-19)
(43.7541 1.09626 2.8182e-19)
(44.0588 1.27223 -3.35753e-21)
(44.3831 1.46389 -3.57743e-20)
(44.7226 1.68745 0)
(45.1019 1.92485 1.7589e-19)
(45.4796 2.18217 -1.00329e-19)
(45.8591 2.45193 1.28239e-20)
(46.273 2.72741 0)
(46.7174 3.03556 0)
(47.2265 3.36896 3.39442e-20)
(47.7827 3.73132 2.47885e-20)
(48.3285 4.14006 -2.3329e-19)
(48.8812 4.60082 1.07526e-19)
(49.52 5.10413 -6.91549e-20)
(50.2524 5.65822 2.68012e-19)
(51.012 6.25145 1.38479e-19)
(51.7688 6.88576 5.32107e-19)
(52.4851 7.52784 -6.23085e-19)
(53.2131 8.15242 4.18677e-19)
(53.9862 8.74096 -4.80946e-19)
(54.7442 9.3385 -6.26637e-19)
(55.4727 9.96253 -7.17216e-19)
(56.2312 10.5415 0)
(57.0051 11.1349 1.83224e-18)
(57.9704 11.7249 -6.95769e-19)
(59.1324 12.2981 -1.76716e-18)
(60.1749 12.801 2.14931e-18)
(61.2228 13.2555 -7.67246e-20)
(62.2181 13.7339 -1.75995e-18)
(63.2525 14.2017 -6.11573e-20)
(64.5478 14.685 -2.36572e-18)
(65.2201 14.9443 -5.83783e-18)
(64.8533 14.9807 3.46948e-18)
(60.4678 14.3175 0)
(45.2679 10.646 -5.07973e-18)
(10.9097 1.09373 9.73464e-18)
(39.1156 7.25736e-05 -6.81396e-22)
(41.663 -0.137068 -3.93324e-19)
(41.77 0.053911 1.01215e-19)
(41.8101 -0.0138145 3.67533e-21)
(41.8817 0.125254 -2.62868e-19)
(41.9923 0.094136 0)
(42.1281 0.19451 0)
(42.2807 0.221336 1.00965e-20)
(42.4427 0.293171 -5.48746e-19)
(42.6369 0.358839 1.96388e-19)
(42.8518 0.420781 -1.23e-20)
(43.0822 0.49954 2.66469e-20)
(43.3436 0.573979 -1.55407e-19)
(43.6206 0.688774 1.49257e-19)
(43.9324 0.802336 -3.60894e-19)
(44.2756 0.938721 5.42625e-20)
(44.6539 1.0781 -5.14794e-20)
(45.0598 1.25099 -1.15987e-20)
(45.506 1.44028 1.29754e-19)
(45.9834 1.67568 7.2032e-20)
(46.4691 1.9635 5.21831e-21)
(46.9657 2.28363 2.11861e-21)
(47.4637 2.63823 0)
(47.9877 3.01294 -4.06775e-20)
(48.5429 3.41858 5.78142e-21)
(49.1121 3.83204 5.29149e-21)
(49.7227 4.25143 3.14997e-20)
(50.3227 4.67832 1.08195e-19)
(50.8994 5.11203 0)
(51.5161 5.54941 9.84979e-20)
(52.1826 5.99792 5.84526e-19)
(52.9121 6.47672 5.80884e-19)
(53.6752 6.9946 -3.3717e-19)
(54.4703 7.56583 7.53642e-19)
(55.3279 8.12211 -6.34672e-19)
(56.2523 8.66068 -4.15222e-19)
(57.2302 9.24585 0)
(58.2855 9.79895 -1.21545e-18)
(59.2101 10.3306 -8.1266e-19)
(59.9957 10.8228 9.07784e-19)
(60.9362 11.3338 -1.14393e-18)
(61.9101 11.8204 1.39915e-18)
(63.0213 12.1997 0)
(64.2031 12.533 1.01068e-18)
(65.2384 12.865 0)
(65.384 13.0036 1.47983e-18)
(64.0635 12.8125 -3.57505e-18)
(57.7212 11.7141 2.05455e-18)
(39.624 7.57398 0)
(5.9536 -0.464669 6.76334e-19)
(39.0133 -0.0154034 -8.14509e-23)
(41.7088 -0.160227 -8.93319e-23)
(41.8274 0.0149716 -1.04345e-19)
(41.874 -0.0737215 -4.33008e-22)
(41.9395 0.0562749 -3.27592e-21)
(42.0448 0.00731165 -5.12878e-22)
(42.1768 0.0978404 5.70893e-22)
(42.3454 0.0918475 -1.19326e-21)
(42.5261 0.132989 1.73537e-19)
(42.7227 0.166208 2.70592e-21)
(42.9556 0.217835 1.42487e-21)
(43.2143 0.268123 -3.07071e-21)
(43.4975 0.331851 -1.05293e-19)
(43.8072 0.395791 1.09724e-19)
(44.1344 0.495026 1.15081e-19)
(44.488 0.60976 -5.4552e-20)
(44.8598 0.752343 4.99217e-20)
(45.2675 0.912837 1.0932e-21)
(45.6979 1.08011 7.58542e-22)
(46.1526 1.26107 0)
(46.625 1.44783 -3.75112e-22)
(47.1296 1.66815 -6.84317e-22)
(47.6726 1.91393 7.64964e-22)
(48.2669 2.18705 0)
(48.9137 2.49014 0)
(49.5433 2.84717 1.06476e-19)
(50.177 3.25033 0)
(50.9095 3.68473 -1.0835e-19)
(51.7111 4.16339 0)
(52.525 4.69488 6.75007e-21)
(53.3172 5.23448 -2.70026e-19)
(54.0746 5.77252 2.0046e-20)
(54.8545 6.29499 -4.45251e-19)
(55.664 6.79061 4.12414e-20)
(56.4433 7.30521 2.87017e-19)
(57.1927 7.82329 4.66972e-19)
(57.958 8.28618 -1.69059e-20)
(58.71 8.7663 0)
(59.6473 9.21799 -1.2686e-20)
(60.7555 9.67931 1.54295e-20)
(61.7187 10.0324 0)
(62.6724 10.3415 -2.25279e-20)
(63.5565 10.6684 -1.12529e-19)
(64.6068 11.0425 -8.73717e-19)
(65.253 11.2267 -1.82854e-20)
(65.2495 11.1383 0)
(62.9104 10.7662 0)
(54.1825 9.23337 2.90118e-19)
(32.1916 4.54965 -2.86597e-19)
(2.51347 -0.907759 6.62017e-19)
(38.8945 -0.0365323 -1.58412e-19)
(41.7558 -0.16638 -1.73673e-19)
(41.8716 -0.0181653 -9.49697e-20)
(41.9007 -0.101597 -1.07028e-19)
(41.9778 0.00631072 -1.08471e-19)
(42.0861 -0.062382 1.207e-19)
(42.217 0.00304071 0)
(42.376 -0.0198403 0)
(42.5643 0.00139358 -7.77034e-20)
(42.7691 0.00124309 -2.70559e-21)
(42.9924 0.0136821 8.0648e-20)
(43.2518 0.0244562 5.92861e-21)
(43.5387 0.0577461 8.4666e-20)
(43.8622 0.085165 -8.34317e-20)
(44.2178 0.128007 -8.9383e-20)
(44.6108 0.171076 0)
(45.0412 0.244829 0)
(45.506 0.343468 -1.09306e-21)
(46.0268 0.476566 -7.58442e-22)
(46.5768 0.660345 -4.88601e-21)
(47.1326 0.87642 3.75057e-22)
(47.6903 1.12257 0)
(48.2579 1.39864 0)
(48.8401 1.70913 -2.0675e-20)
(49.4792 2.02904 -1.18512e-19)
(50.1476 2.36296 3.72683e-20)
(50.8214 2.70843 0)
(51.4704 3.06729 -1.39632e-19)
(52.1206 3.41836 0)
(52.8123 3.76761 -6.7485e-21)
(53.5502 4.15286 0)
(54.3357 4.57283 0)
(55.126 5.01719 1.23488e-19)
(55.94 5.50085 1.51102e-19)
(56.8178 5.96312 0)
(57.745 6.42011 0)
(58.7154 6.9225 1.68993e-20)
(59.7587 7.38108 0)
(60.6359 7.82726 1.26797e-20)
(61.3501 8.1846 -5.16286e-19)
(62.2087 8.60122 6.2487e-19)
(63.0908 8.986 7.4329e-20)
(64.1268 9.28307 5.68188e-20)
(65.1252 9.52124 -9.27524e-19)
(65.3597 9.58872 -6.00095e-19)
(64.4814 9.59584 3.58138e-18)
(60.3497 9.01544 -1.64205e-18)
(48.343 7.06113 -1.97938e-18)
(23.3951 2.21582 1.62786e-18)
(-0.150284 -0.432976 0)
(38.7453 -0.0538122 1.5772e-19)
(41.7792 -0.193893 -1.61289e-19)
(41.8932 -0.0565972 9.34732e-20)
(41.9356 -0.155157 -9.8992e-20)
(41.9919 -0.0642282 1.15789e-19)
(42.0836 -0.141833 -1.24661e-19)
(42.2183 -0.0977859 -8.16468e-21)
(42.3742 -0.150517 9.09064e-21)
(42.5529 -0.158138 6.8412e-20)
(42.7697 -0.182555 1.02956e-20)
(43.0122 -0.208701 -8.59049e-20)
(43.2874 -0.228276 -1.6834e-19)
(43.5957 -0.250078 7.90921e-20)
(43.9307 -0.237935 7.96409e-20)
(44.2899 -0.215545 2.53488e-19)
(44.6769 -0.174694 -7.95138e-21)
(45.0999 -0.12385 8.87569e-21)
(45.5344 -0.060951 -3.54674e-20)
(46.0192 0.00670226 4.0709e-22)
(46.55 0.0840663 4.42562e-21)
(47.1089 0.19603 0)
(47.7003 0.340374 0)
(48.3336 0.506311 0)
(48.9965 0.705281 0)
(49.7122 0.946643 1.11917e-19)
(50.4139 1.2375 -3.43976e-19)
(51.1469 1.57624 0)
(51.9717 1.94739 4.41034e-19)
(52.8334 2.37956 0)
(53.6867 2.84063 0)
(54.5151 3.29988 -6.34918e-19)
(55.3074 3.75462 4.14897e-19)
(56.1174 4.20526 -9.81708e-19)
(56.9469 4.63285 2.81635e-19)
(57.7299 5.08741 0)
(58.4838 5.53473 0)
(59.2388 5.93224 5.91521e-19)
(59.9448 6.35302 -2.04884e-18)
(60.8351 6.73574 0)
(61.8668 7.16454 -1.5512e-18)
(62.7228 7.43579 2.41203e-18)
(63.5798 7.68957 -2.87853e-18)
(64.4477 8.01167 1.5772e-18)
(64.9629 8.24668 -1.96621e-18)
(64.8928 8.29674 5.32529e-18)
(63.3137 8.09643 -4.78384e-18)
(57.0928 7.40031 3.25552e-18)
(41.6129 5.31344 -7.30538e-18)
(11.6643 0.664181 8.70025e-18)
(-2.35981 0.298821 -5.56272e-18)
(38.5799 -0.0611658 2.98475e-19)
(41.7912 -0.192917 7.59307e-21)
(41.9062 -0.0756916 0)
(41.9345 -0.1797 2.04101e-19)
(41.9858 -0.101302 4.53821e-19)
(42.0674 -0.200796 -1.5147e-20)
(42.1851 -0.176324 0)
(42.3292 -0.250875 0)
(42.5003 -0.289563 1.79086e-20)
(42.6932 -0.343726 -1.995e-20)
(42.9234 -0.401909 3.19603e-19)
(43.1875 -0.455788 -1.57869e-19)
(43.4971 -0.529187 -1.6897e-19)
(43.8506 -0.593407 1.5734e-19)
(44.2343 -0.655677 -1.55943e-19)
(44.6664 -0.689775 -1.37491e-20)
(45.1519 -0.709059 1.10475e-19)
(45.6766 -0.686472 8.56225e-20)
(46.2375 -0.631026 0)
(46.8369 -0.540543 4.81838e-20)
(47.4519 -0.425574 1.04278e-19)
(48.0652 -0.263315 0)
(48.7 -0.0696623 -2.72135e-19)
(49.3442 0.154294 0)
(50.0546 0.377925 0)
(50.8125 0.630831 3.42927e-19)
(51.5233 0.902455 2.29381e-19)
(52.2132 1.18371 6.25402e-19)
(52.9391 1.45096 0)
(53.7137 1.75614 0)
(54.5165 2.09347 2.87933e-19)
(55.3496 2.4618 3.85248e-19)
(56.1794 2.85654 1.56272e-18)
(57.0143 3.2904 6.19448e-20)
(57.9128 3.70185 7.18266e-20)
(58.8442 4.12175 -1.89273e-18)
(59.807 4.58204 -9.5289e-20)
(60.8451 4.99557 2.71959e-18)
(61.6637 5.40868 1.68415e-18)
(62.3115 5.70289 1.00095e-18)
(63.1024 6.10793 2.47652e-18)
(63.9028 6.4933 1.67949e-19)
(64.8317 6.85425 -3.04139e-18)
(65.1057 6.93898 -1.84998e-18)
(64.4679 7.08128 -5.80981e-18)
(61.0859 6.94089 6.69542e-18)
(51.7394 5.98449 -3.02358e-18)
(31.2114 3.44124 0)
(3.7683 0.28432 0)
(-3.72947 0.824457 1.08666e-18)
(38.4068 -0.0748836 -8.83478e-19)
(41.8038 -0.20946 -3.21407e-19)
(41.9007 -0.0962267 3.5527e-19)
(41.9246 -0.212199 -1.22966e-20)
(41.9615 -0.13986 -8.73981e-19)
(42.0266 -0.251872 1.49005e-20)
(42.1356 -0.253719 0)
(42.2541 -0.344715 5.44553e-19)
(42.4258 -0.41889 1.76003e-20)
(42.6134 -0.514258 -1.22341e-21)
(42.84 -0.607177 -6.56227e-19)
(43.0984 -0.704927 3.06297e-19)
(43.4031 -0.790766 2.58567e-21)
(43.7529 -0.877155 -1.36213e-19)
(44.1308 -0.95642 0)
(44.5383 -1.02498 0)
(44.979 -1.09108 -8.71016e-20)
(45.4617 -1.14981 -5.87615e-20)
(46.0029 -1.19848 0)
(46.5999 -1.21638 -4.80328e-20)
(47.2433 -1.20735 -1.03933e-19)
(47.9094 -1.16675 -5.5348e-20)
(48.6217 -1.08976 4.18081e-20)
(49.3599 -0.959451 3.01925e-19)
(50.1219 -0.79098 1.27455e-19)
(50.9017 -0.57782 2.06468e-19)
(51.7475 -0.316996 -7.16708e-19)
(52.6484 0.00796385 -6.33542e-19)
(53.5633 0.387978 8.45367e-19)
(54.4546 0.774564 -1.07354e-18)
(55.3188 1.17049 0)
(56.1525 1.58205 0)
(56.9953 1.98415 7.06531e-20)
(57.8557 2.37186 -1.22061e-18)
(58.6566 2.80395 1.58088e-18)
(59.4324 3.22104 2.92385e-18)
(60.1809 3.60081 -1.11497e-18)
(60.8319 4.0125 -2.81114e-18)
(61.6944 4.39165 -3.35365e-18)
(62.659 4.85197 -2.06988e-18)
(63.4294 5.12709 -1.43116e-19)
(64.3532 5.46765 2.59435e-18)
(64.8357 5.70316 0)
(64.6378 5.94442 1.94243e-18)
(63.1893 6.03036 2.26133e-18)
(58.0219 5.69613 2.55228e-18)
(44.6767 4.55872 8.76396e-18)
(19.0396 1.71344 -3.28668e-18)
(-0.955233 0.535628 0)
(-4.40499 0.944288 0)
(38.2302 -0.0695411 3.96289e-21)
(41.8094 -0.209162 6.48913e-19)
(41.8886 -0.0913691 -3.65677e-19)
(41.9024 -0.219041 7.82733e-19)
(41.9207 -0.150542 4.60732e-19)
(41.9598 -0.269695 -3.80254e-22)
(42.0475 -0.28965 -1.60463e-20)
(42.1337 -0.390896 -5.10215e-19)
(42.2692 -0.481989 -3.69887e-20)
(42.4335 -0.605782 -3.67334e-20)
(42.6354 -0.740488 3.19085e-19)
(42.8709 -0.902295 4.21309e-20)
(43.1621 -1.0655 3.26768e-19)
(43.5098 -1.23991 3.15643e-19)
(43.9167 -1.40035 -3.10395e-20)
(44.3828 -1.54699 3.46243e-20)
(44.901 -1.66228 0)
(45.4526 -1.745 3.9964e-20)
(46.0458 -1.7998 0)
(46.6915 -1.82489 0)
(47.3613 -1.81363 0)
(48.0385 -1.75788 -1.16822e-19)
(48.7294 -1.67232 4.20052e-19)
(49.4461 -1.55526 -4.13709e-19)
(50.2376 -1.41636 0)
(51.0636 -1.23925 -2.13493e-19)
(51.8044 -1.04437 -8.00244e-19)
(52.5534 -0.8578 -1.34541e-18)
(53.3559 -0.64727 -1.29525e-18)
(54.2096 -0.381332 1.0599e-18)
(55.0965 -0.0776813 -1.36227e-18)
(55.9912 0.243637 8.04358e-19)
(56.8652 0.613772 2.113e-18)
(57.7382 1.02075 0)
(58.673 1.3984 1.61312e-18)
(59.6169 1.81495 -3.91203e-18)
(60.6005 2.27123 -9.94814e-20)
(61.6797 2.68835 2.781e-18)
(62.4664 3.11317 1.66541e-18)
(63.1054 3.41253 0)
(63.9345 3.88133 2.33382e-18)
(64.6847 4.36085 -2.68396e-18)
(64.8502 4.64275 6.10927e-18)
(64.4328 4.92514 0)
(61.5348 5.11652 -8.77341e-18)
(52.7383 4.83189 2.40787e-18)
(34.0133 3.3141 -2.82528e-18)
(5.99048 0.957831 -3.14587e-18)
(-4.19012 1.24211 6.96331e-18)
(-4.48405 0.889327 2.09729e-20)
(38.0501 -0.0658865 5.819e-19)
(41.8112 -0.214059 -6.34648e-19)
(41.8882 -0.0833825 7.09803e-19)
(41.8816 -0.212323 -1.56298e-18)
(41.8758 -0.147182 8.93289e-19)
(41.8944 -0.272345 -5.86389e-20)
(41.9539 -0.312325 5.47433e-19)
(42.0227 -0.437486 0)
(42.1323 -0.557626 5.95494e-19)
(42.2746 -0.703043 -6.68063e-19)
(42.4594 -0.862431 3.02347e-21)
(42.6743 -1.03152 4.31242e-20)